INSANE! Membrane UpperLeaflet>POPC=1 LowerLeaflet>POPC=1
 3288
    1POPC   NC3    1   2.810   3.608   5.947 -0.0703  0.1626  0.0264
    1POPC   PO4    2   2.943   3.988   6.105  0.4128  0.3625  0.0156
    1POPC   GL1    3   3.337   3.705   6.080 -0.2734 -0.1249 -0.1254
    1POPC   GL2    4   3.294   3.482   5.883 -0.0175  0.0443 -0.2868
    1POPC   C1A    5   3.545   3.837   5.650 -0.1044 -0.1359 -0.2174
    1POPC   D2A    6   3.398   4.003   5.236 -0.1066  0.2446  0.1348
    1POPC   C3A    7   3.277   3.763   4.779  0.1055 -0.1356 -0.1788
    1POPC   C4A    8   3.023   3.494   4.471  0.0774  0.1277 -0.0502
    1POPC   C1B    9   3.497   3.244   5.549  0.0922 -0.2027  0.2069
    1POPC   C2B   10   3.412   2.960   5.250 -0.0218  0.1208 -0.0996
    1POPC   C3B   11   3.417   2.778   4.820  0.1635 -0.0239  0.2505
    1POPC   C4B   12   3.614   2.594   4.476  0.3050  0.0508 -0.2500
    2POPC   NC3   13   5.403   1.046   6.091  0.0413 -0.3245  0.0893
    2POPC   PO4   14   5.713   1.068   6.300  0.0644  0.1320  0.1150
    2POPC   GL1   15   5.955   1.035   5.844  0.2741  0.2682  0.3164
    2POPC   GL2   16   6.100   1.308   5.855 -0.0148  0.1926 -0.1633
    2POPC   C1A   17   5.767   1.298   5.512  0.1444  0.0023 -0.0252
    2POPC   D2A   18   5.703   1.260   5.057  0.1009 -0.2003 -0.1171
    2POPC   C3A   19   5.732   1.139   4.607 -0.5902 -0.0945 -0.1445
    2POPC   C4A   20   6.066   0.959   4.365  0.0596  0.3283 -0.1410
    2POPC   C1B   21   6.208   1.033   5.468 -0.2941  0.0439  0.4707
    2POPC   C2B   22   5.822   0.798   5.216  0.0536 -0.0665 -0.0580
    2POPC   C3B   23   5.613   0.375   5.070  0.1168  0.2445 -0.2859
    2POPC   C4B   24   5.562   0.142   4.654 -0.0293  0.2384 -0.0328
    3POPC   NC3   25   3.598   0.434   6.535 -0.0887  0.0412  0.0414
    3POPC   PO4   26   3.478   0.795   6.459  0.0249  0.1590 -0.3383
    3POPC   GL1   27   3.560   0.657   6.096 -0.2486  0.0119  0.2225
    3POPC   GL2   28   3.349   0.446   6.107  0.1419 -0.0559 -0.0071
    3POPC   C1A   29   3.928   0.712   5.758 -0.5758  0.1051 -0.3209
    3POPC   D2A   30   4.111   0.534   5.396  0.0916 -0.3188 -0.1131
    3POPC   C3A   31   4.003   0.316   5.010 -0.0987  0.5582  0.1457
    3POPC   C4A   32   3.841   0.355   4.614 -0.1141  0.0696 -0.0994
    3POPC   C1B   33   3.216   0.613   5.669  0.2426  0.2716  0.0178
    3POPC   C2B   34   3.060   0.554   5.305 -0.1715  0.3035 -0.3088
    3POPC   C3B   35   2.862   0.292   4.958 -0.2379  0.3171  0.0217
    3POPC   C4B   36   2.647  -0.110   4.994  0.1163 -0.2115 -0.0281
    4POPC   NC3   37   0.435   2.087   6.270 -0.1684  0.0131  0.3047
    4POPC   PO4   38   0.404   1.793   5.981  0.0255 -0.2375 -0.1880
    4POPC   GL1   39   0.235   1.733   5.592  0.0695 -0.2784 -0.3517
    4POPC   GL2   40  -0.080   1.612   5.664 -0.0194 -0.1536  0.0580
    4POPC   C1A   41   0.235   1.915   5.162 -0.0203 -0.4634 -0.0977
    4POPC   D2A   42   0.295   2.155   4.779 -0.1268 -0.2723  0.1353
    4POPC   C3A   43   0.610   2.506   4.733  0.2422  0.1247  0.0756
    4POPC   C4A   44   1.032   2.677   4.660  0.2644 -0.1491 -0.1520
    4POPC   C1B   45  -0.153   1.441   5.218 -0.0801 -0.0326 -0.1486
    4POPC   C2B   46  -0.394   1.421   4.841  0.3933  0.1165 -0.0480
    4POPC   C3B   47  -0.384   1.487   4.425 -0.0204  0.1630  0.1071
    4POPC   C4B   48  -0.406   1.871   4.132 -0.3534 -0.1840  0.0995
    5POPC   NC3   49   5.862   3.287   6.112 -0.2672  0.0703 -0.1062
    5POPC   PO4   50   5.695   3.578   6.311  0.3845 -0.0291 -0.0275
    5POPC   GL1   51   5.632   3.790   5.993 -0.0677  0.1607  0.0942
    5POPC   GL2   52   5.583   4.043   5.969  0.0117  0.0810 -0.0624
    5POPC   C1A   53   5.828   3.652   5.629 -0.0128  0.1678  0.0393
    5POPC   D2A   54   5.939   3.888   5.286 -0.1199 -0.2465 -0.2179
    5POPC   C3A   55   5.646   3.883   4.924 -0.0401 -0.0871 -0.1083
    5POPC   C4A   56   5.469   3.894   4.497  0.1958 -0.3690 -0.1782
    5POPC   C1B   57   5.473   4.077   5.531  0.0175 -0.0976 -0.3945
    5POPC   C2B   58   5.203   4.008   5.184 -0.0216  0.0920 -0.1076
    5POPC   C3B   59   5.187   3.689   4.886 -0.0554  0.4878 -0.1875
    5POPC   C4B   60   5.422   3.366   4.579  0.2853 -0.2030 -0.0816
    6POPC   NC3   61   1.946   6.449   6.098 -0.2185  0.0450 -0.1048
    6POPC   PO4   62   2.308   6.565   6.204 -0.1637 -0.0029 -0.1322
    6POPC   GL1   63   2.406   6.769   5.862  0.2087 -0.2244 -0.1770
    6POPC   GL2   64   2.213   6.608   5.660  0.2140 -0.2143  0.1451
    6POPC   C1A   65   2.327   7.189   5.663  0.0791 -0.0612 -0.0397
    6POPC   D2A   66   2.305   7.634   5.611 -0.1162  0.3593 -0.0105
    6POPC   C3A   67   2.426   7.987   5.390  0.2785 -0.3433 -0.1155
    6POPC   C4A   68   2.374   8.419   5.214  0.0415 -0.2586 -0.2975
    6POPC   C1B   69   1.889   6.907   5.742  0.0925  0.0392  0.1749
    6POPC   C2B   70   1.834   7.329   5.558  0.0837  0.3693 -0.2419
    6POPC   C3B   71   1.958   7.548   5.215  0.0791  0.2014  0.2161
    6POPC   C4B   72   1.702   7.878   4.968 -0.1205 -0.0214 -0.0198
    7POPC   NC3   73   0.334   1.290   5.915  0.0932 -0.2275  0.1282
    7POPC   PO4   74   0.432   0.889   6.006  0.0857 -0.0766 -0.2316
    7POPC   GL1   75   0.441   0.880   5.649  0.2030  0.3009 -0.1398
    7POPC   GL2   76   0.175   0.855   5.602 -0.0529  0.1638 -0.0057
    7POPC   C1A   77   0.756   0.877   5.265  0.2368  0.1603 -0.1209
    7POPC   D2A   78   0.909   0.696   4.897  0.1623  0.5757  0.1413
    7POPC   C3A   79   0.760   0.242   4.935  0.2433 -0.0140  0.2466
    7POPC   C4A   80   0.796  -0.207   4.892  0.1425 -0.1935 -0.0176
    7POPC   C1B   81   0.162   1.020   5.126 -0.2008 -0.1657  0.0016
    7POPC   C2B   82   0.422   1.041   4.702  0.3172 -0.3948  0.1132
    7POPC   C3B   83   0.468   1.340   4.343  0.0550  0.1157  0.1215
    7POPC   C4B   84   0.186   1.142   4.026 -0.0010 -0.0356  0.0470
    8POPC   NC3   85   3.573   3.714   6.693 -0.0763 -0.1487 -0.0378
    8POPC   PO4   86   3.570   3.997   6.345 -0.0487  0.0323  0.2313
    8POPC   GL1   87   3.665   4.168   5.993 -0.1183  0.1751 -0.0960
    8POPC   GL2   88   3.931   4.207   5.997 -0.1456 -0.0157 -0.2214
    8POPC   C1A   89   3.565   4.371   5.575  0.1891  0.0763 -0.5345
    8POPC   D2A   90   3.293   4.757   5.516 -0.0881 -0.0113  0.0984
    8POPC   C3A   91   3.343   4.928   5.057 -0.0699  0.1254  0.1338
    8POPC   C4A   92   3.609   5.110   4.775  0.0258 -0.2155  0.0174
    8POPC   C1B   93   3.973   4.125   5.519 -0.0564  0.0560  0.0118
    8POPC   C2B   94   3.929   4.093   5.034  0.0478  0.2858 -0.0319
    8POPC   C3B   95   3.920   4.240   4.593  0.0510 -0.0686  0.0293
    8POPC   C4B   96   4.235   4.459   4.315 -0.2558  0.1164 -0.1644
    9POPC   NC3   97   2.429   2.661   6.859  0.0421 -0.1759  0.1644
    9POPC   PO4   98   2.799   2.711   6.797  0.1653 -0.2270 -0.1454
    9POPC   GL1   99   2.697   2.699   6.374 -0.1697 -0.3032  0.3018
    9POPC   GL2  100   2.893   2.772   6.259 -0.0321 -0.0866 -0.0286
    9POPC   C1A  101   2.640   2.457   5.921  0.2584 -0.2071  0.1145
    9POPC   D2A  102   2.547   2.508   5.466 -0.1983  0.2187 -0.2038
    9POPC   C3A  103   2.505   2.540   5.035 -0.0801 -0.2314 -0.5717
    9POPC   C4A  104   2.448   2.487   4.595 -0.1375  0.0357 -0.0310
    9POPC   C1B  105   2.994   2.781   5.799  0.0364  0.3078  0.0117
    9POPC   C2B  106   2.905   2.826   5.317 -0.2546 -0.0139 -0.0261
    9POPC   C3B  107   2.949   2.648   4.839 -0.0103 -0.0314 -0.1447
    9POPC   C4B  108   3.150   2.505   4.463 -0.1683  0.1056 -0.0577
   10POPC   NC3  109   1.211   5.158   6.557  0.1514  0.1662 -0.0229
   10POPC   PO4  110   1.016   5.211   6.224  0.1982 -0.1171 -0.1137
   10POPC   GL1  111   0.881   5.311   5.935 -0.7114  0.0093  0.4120
   10POPC   GL2  112   0.744   5.531   5.928  0.1072 -0.0638 -0.1842
   10POPC   C1A  113   0.852   5.471   5.487 -0.0431 -0.0119  0.2236
   10POPC   D2A  114   0.743   5.626   5.067  0.0982 -0.1122 -0.3173
   10POPC   C3A  115   0.386   5.860   4.809  0.3212  0.2573  0.1647
   10POPC   C4A  116   0.095   5.939   4.424 -0.4876 -0.1471  0.0104
   10POPC   C1B  117   0.377   5.631   5.679  0.0216 -0.4711  0.1483
   10POPC   C2B  118   0.147   5.616   5.293  0.0094  0.2388  0.1509
   10POPC   C3B  119  -0.065   5.681   4.893 -0.0251  0.2811 -0.3009
   10POPC   C4B  120  -0.277   5.460   4.564  0.1754  0.0380 -0.1902
   11POPC   NC3  121   4.694   3.029   6.991  0.3170 -0.3672 -0.2245
   11POPC   PO4  122   5.026   2.921   6.784  0.0465  0.0904  0.2798
   11POPC   GL1  123   4.951   3.031   6.374  0.3441  0.2076 -0.2644
   11POPC   GL2  124   4.916   2.730   6.246  0.1903  0.0640 -0.0049
   11POPC   C1A  125   4.788   3.367   6.102  0.3848 -0.1564 -0.0212
   11POPC   D2A  126   4.801   3.754   5.879 -0.2398  0.1204  0.1268
   11POPC   C3A  127   5.163   3.740   5.701  0.2071 -0.3543  0.0009
   11POPC   C4A  128   5.395   3.583   5.329  0.2576 -0.4718 -0.3235
   11POPC   C1B  129   4.579   2.791   5.907 -0.0157 -0.1297  0.1281
   11POPC   C2B  130   4.345   2.604   5.546  0.0599 -0.3696 -0.0779
   11POPC   C3B  131   4.335   2.575   5.089 -0.1840  0.3658  0.1357
   11POPC   C4B  132   4.359   2.959   4.814  0.1055  0.0286 -0.2106
   12POPC   NC3  133   0.480   5.224   6.275  0.1204 -0.0821 -0.2262
   12POPC   PO4  134   0.118   5.197   6.444 -0.1671 -0.0857  0.1669
   12POPC   GL1  135   0.097   5.106   6.028 -0.0197  0.2747  0.0180
   12POPC   GL2  136   0.068   5.422   6.018  0.1129  0.1990 -0.0877
   12POPC   C1A  137   0.132   5.202   5.567  0.3368  0.1963 -0.0202
   12POPC   D2A  138   0.482   5.165   5.253  0.0374 -0.1284  0.1463
   12POPC   C3A  139   0.627   4.746   5.166 -0.2598  0.0866  0.1186
   12POPC   C4A  140   0.778   4.313   5.013  0.1062  0.0299 -0.0952
   12POPC   C1B  141  -0.184   5.614   5.752 -0.1099 -0.0954 -0.1988
   12POPC   C2B  142  -0.177   5.937   5.464 -0.0064  0.0061  0.1360
   12POPC   C3B  143  -0.392   6.032   5.091 -0.2403  0.0563 -0.0798
   12POPC   C4B  144  -0.536   5.903   4.683  0.0374  0.3816  0.0153
   13POPC   NC3  145   2.964   2.273   6.857 -0.1993  0.1646  0.0193
   13POPC   PO4  146   2.613   2.180   6.955 -0.3260  0.1431 -0.0204
   13POPC   GL1  147   2.552   2.321   6.552  0.2082  0.2031 -0.4267
   13POPC   GL2  148   2.753   2.223   6.335 -0.0892  0.0371 -0.0897
   13POPC   C1A  149   2.275   2.486   6.218  0.4121  0.0770  0.0433
   13POPC   D2A  150   2.168   2.605   5.766  0.1469  0.1173 -0.1462
   13POPC   C3A  151   2.061   2.663   5.306 -0.0886  0.0304  0.0662
   13POPC   C4A  152   2.020   2.812   4.859 -0.0241 -0.0574  0.1601
   13POPC   C1B  153   2.845   1.962   6.028 -0.0685  0.1847 -0.1193
   13POPC   C2B  154   3.152   1.841   5.737  0.0890  0.1908 -0.0874
   13POPC   C3B  155   3.277   1.977   5.317 -0.4176  0.1906  0.0439
   13POPC   C4B  156   3.684   2.093   5.146  0.3001  0.1061 -0.2064
   14POPC   NC3  157   2.033   2.134   6.870  0.1331 -0.0436 -0.0769
   14POPC   PO4  158   1.954   2.016   6.500  0.3479  0.0820  0.0772
   14POPC   GL1  159   2.171   1.975   6.163  0.0171 -0.2809  0.1947
   14POPC   GL2  160   2.345   1.743   6.159  0.1470  0.0554 -0.1097
   14POPC   C1A  161   2.382   2.109   5.777  0.0089 -0.1667 -0.0465
   14POPC   D2A  162   2.778   2.074   5.559 -0.0661  0.0646 -0.1046
   14POPC   C3A  163   2.827   2.200   5.125  0.1881 -0.0147 -0.1876
   14POPC   C4A  164   2.878   2.169   4.686 -0.1556 -0.0524  0.0821
   14POPC   C1B  165   2.094   1.730   5.784  0.0085 -0.1813 -0.1589
   14POPC   C2B  166   1.941   1.660   5.319  0.3154 -0.1044  0.0736
   14POPC   C3B  167   2.061   1.728   4.855  0.2012 -0.1472 -0.1696
   14POPC   C4B  168   2.436   1.898   4.628  0.0478  0.0573 -0.1365
   15POPC   NC3  169   6.264   5.471   6.872  0.0623  0.2156 -0.2202
   15POPC   PO4  170   6.329   5.622   6.489  0.2258 -0.2097 -0.1876
   15POPC   GL1  171   6.056   5.652   6.141  0.2320 -0.1196  0.0304
   15POPC   GL2  172   5.774   5.806   6.063 -0.1874 -0.0292 -0.0164
   15POPC   C1A  173   6.052   5.287   5.871 -0.0551 -0.0604 -0.0854
   15POPC   D2A  174   6.161   5.033   5.551  0.0781  0.3232 -0.1237
   15POPC   C3A  175   5.758   4.860   5.455  0.2347  0.1243 -0.1969
   15POPC   C4A  176   5.571   4.930   5.077 -0.0938 -0.1100  0.2500
   15POPC   C1B  177   5.861   5.682   5.605 -0.0533 -0.0814 -0.3546
   15POPC   C2B  178   6.146   5.505   5.290 -0.0012  0.1592  0.2358
   15POPC   C3B  179   6.183   5.159   4.993  0.1065 -0.0922 -0.0603
   15POPC   C4B  180   5.979   4.826   4.814 -0.2304  0.1142  0.0271
   16POPC   NC3  181   4.408   0.078   6.624 -0.0649 -0.3374 -0.3104
   16POPC   PO4  182   4.411  -0.275   6.788 -0.4689  0.0592  0.3575
   16POPC   GL1  183   4.434  -0.350   6.451 -0.1791 -0.1529  0.6036
   16POPC   GL2  184   4.711  -0.464   6.384  0.2601  0.2651 -0.1080
   16POPC   C1A  185   4.415  -0.533   6.014 -0.2954 -0.1266  0.0461
   16POPC   D2A  186   4.392  -0.694   5.586 -0.2627  0.2287  0.3047
   16POPC   C3A  187   4.568  -0.641   5.173  0.2547 -0.0333  0.0590
   16POPC   C4A  188   4.816  -0.294   4.930 -0.1236  0.0022  0.0842
   16POPC   C1B  189   4.831  -0.351   5.938 -0.0279 -0.1095  0.2452
   16POPC   C2B  190   4.887  -0.163   5.493 -0.0209  0.2492  0.1204
   16POPC   C3B  191   4.997   0.149   5.166  0.2043 -0.2226 -0.1732
   16POPC   C4B  192   4.893   0.206   4.724 -0.0121  0.1886 -0.1411
   17POPC   NC3  193   4.604   2.331   6.152 -0.3123 -0.3488 -0.1058
   17POPC   PO4  194   4.530   2.163   6.528  0.0886 -0.2147  0.1305
   17POPC   GL1  195   4.264   1.927   6.240 -0.0405 -0.0803  0.0526
   17POPC   GL2  196   4.557   1.829   6.102  0.0234 -0.1356  0.0831
   17POPC   C1A  197   3.907   1.701   5.967 -0.3292 -0.1861 -0.2471
   17POPC   D2A  198   3.530   1.539   5.787 -0.0178  0.2285  0.2199
   17POPC   C3A  199   3.429   1.452   5.342  0.3201 -0.3039 -0.1485
   17POPC   C4A  200   3.619   1.652   4.969  0.0073  0.0511 -0.3348
   17POPC   C1B  201   4.369   1.878   5.681  0.2005 -0.0117 -0.2621
   17POPC   C2B  202   4.619   2.130   5.410 -0.2234 -0.1081  0.0183
   17POPC   C3B  203   4.904   2.260   5.041 -0.2925  0.2300  0.0884
   17POPC   C4B  204   4.990   2.169   4.556  0.2241  0.2302  0.1386
   18POPC   NC3  205   5.200   4.815   6.497  0.1992  0.1335 -0.0627
   18POPC   PO4  206   5.352   5.161   6.603  0.0870 -0.0522 -0.0238
   18POPC   GL1  207   5.367   5.365   6.222  0.0478 -0.0091  0.1275
   18POPC   GL2  208   5.120   5.273   6.158 -0.1736  0.0128  0.0368
   18POPC   C1A  209   5.347   5.469   5.762  0.1685 -0.1427  0.0185
   18POPC   D2A  210   5.523   5.414   5.349  0.1301 -0.1552 -0.1412
   18POPC   C3A  211   5.599   5.846   5.209  0.2128  0.1701  0.1466
   18POPC   C4A  212   5.592   6.199   4.970  0.2101  0.0614  0.0654
   18POPC   C1B  213   4.825   5.151   5.823 -0.0500 -0.0676 -0.4790
   18POPC   C2B  214   4.817   4.750   5.638 -0.4284  0.1662  0.0228
   18POPC   C3B  215   4.784   4.542   5.212  0.0613 -0.0281 -0.0224
   18POPC   C4B  216   5.018   4.664   4.840  0.0283  0.0394  0.1459
   19POPC   NC3  217   0.665   4.180   6.156 -0.0427 -0.1103 -0.0067
   19POPC   PO4  218   0.529   3.807   6.203  0.1593  0.0942  0.0434
   19POPC   GL1  219   0.245   3.839   5.892 -0.0771  0.1948 -0.1214
   19POPC   GL2  220   0.439   3.745   5.634  0.0985 -0.0860 -0.1007
   19POPC   C1A  221  -0.046   3.616   5.615 -0.0584  0.0155  0.0886
   19POPC   D2A  222  -0.269   3.429   5.259  0.0388  0.0380  0.0667
   19POPC   C3A  223  -0.165   2.969   5.278 -0.2490  0.1006  0.1204
   19POPC   C4A  224  -0.265   2.511   5.242  0.0319  0.2915 -0.0737
   19POPC   C1B  225   0.424   4.109   5.342 -0.0056 -0.2698 -0.3732
   19POPC   C2B  226   0.320   4.056   4.962 -0.1842 -0.3675 -0.1092
   19POPC   C3B  227   0.233   3.780   4.625 -0.0066  0.2559  0.1316
   19POPC   C4B  228  -0.023   3.416   4.397  0.0743 -0.0142  0.1223
   20POPC   NC3  229   4.959   1.790   6.448 -0.1460 -0.1931  0.1954
   20POPC   PO4  230   5.002   2.077   6.226 -0.1203 -0.4688 -0.0511
   20POPC   GL1  231   4.899   2.024   5.848 -0.0294  0.1765  0.5067
   20POPC   GL2  232   4.919   2.324   5.746 -0.0602  0.0001  0.6019
   20POPC   C1A  233   4.813   1.643   5.641  0.0367  0.1270 -0.0655
   20POPC   D2A  234   4.835   1.160   5.449 -0.2952 -0.2520 -0.1794
   20POPC   C3A  235   4.889   0.958   5.062  0.2774 -0.2129 -0.0181
   20POPC   C4A  236   5.094   0.990   4.666 -0.0336 -0.2117 -0.0130
   20POPC   C1B  237   4.834   2.656   5.409  0.1634 -0.1983 -0.1128
   20POPC   C2B  238   4.782   2.972   5.057 -0.0323  0.2893  0.1866
   20POPC   C3B  239   4.865   3.209   4.716 -0.2916 -0.2995  0.0429
   20POPC   C4B  240   4.999   3.556   4.397  0.0716 -0.3776  0.3144
   21POPC   NC3  241   4.722   5.815   6.833  0.1153  0.1151  0.0003
   21POPC   PO4  242   4.534   5.489   6.702 -0.3746  0.0416 -0.4687
   21POPC   GL1  243   4.524   5.609   6.292 -0.2916 -0.3581 -0.4078
   21POPC   GL2  244   4.730   5.608   6.128  0.0792 -0.0573  0.3141
   21POPC   C1A  245   4.246   5.487   5.954  0.1134  0.1310  0.1124
   21POPC   D2A  246   3.963   5.448   5.594  0.0828 -0.3851  0.2707
   21POPC   C3A  247   4.102   5.576   5.187  0.2864 -0.2709 -0.0049
   21POPC   C4A  248   4.071   5.341   4.791 -0.0171 -0.1756  0.3463
   21POPC   C1B  249   4.887   5.710   5.733 -0.2636  0.0002 -0.1130
   21POPC   C2B  250   4.934   5.490   5.327  0.1027  0.0636  0.0509
   21POPC   C3B  251   5.078   5.552   4.963 -0.0427 -0.0126 -0.0064
   21POPC   C4B  252   5.426   5.783   4.782 -0.0864  0.0428  0.1060
   22POPC   NC3  253   4.500   1.193   6.760  0.0234  0.0887  0.0784
   22POPC   PO4  254   4.226   0.945   6.587 -0.4410 -0.0014  0.0221
   22POPC   GL1  255   4.425   1.005   6.216  0.0517 -0.2259  0.1305
   22POPC   GL2  256   4.337   0.880   6.001  0.2276 -0.0562 -0.2113
   22POPC   C1A  257   4.363   1.330   5.856  0.0716 -0.2244 -0.0603
   22POPC   D2A  258   4.298   1.515   5.369 -0.1783  0.1127  0.2862
   22POPC   C3A  259   3.907   1.769   5.482  0.3043 -0.2296 -0.0294
   22POPC   C4A  260   3.618   2.063   5.706 -0.1829  0.2165  0.0309
   22POPC   C1B  261   4.351   0.979   5.510 -0.1214  0.0851  0.0445
   22POPC   C2B  262   4.332   0.977   5.044  0.0502  0.6089 -0.1799
   22POPC   C3B  263   4.523   0.850   4.577  0.4128 -0.1245  0.0343
   22POPC   C4B  264   4.786   0.625   4.322 -0.1259  0.0513  0.1320
   23POPC   NC3  265   0.064   2.942   6.117  0.2090  0.0264  0.2085
   23POPC   PO4  266   0.462   2.850   6.241  0.1305 -0.0404  0.3099
   23POPC   GL1  267   0.547   2.899   5.844  0.1477 -0.1356 -0.2135
   23POPC   GL2  268   0.775   2.927   5.799  0.0822  0.2508 -0.0376
   23POPC   C1A  269   0.177   3.103   5.570 -0.1759  0.1850 -0.0003
   23POPC   D2A  270  -0.252   3.183   5.724  0.1501  0.0739  0.0320
   23POPC   C3A  271  -0.663   3.193   5.478 -0.1225 -0.1614 -0.0142
   23POPC   C4A  272  -0.764   3.360   5.072 -0.0188 -0.5440  0.4499
   23POPC   C1B  273   0.614   2.544   5.567  0.0306  0.1078 -0.3536
   23POPC   C2B  274   0.638   2.195   5.227 -0.0377  0.0230  0.0072
   23POPC   C3B  275   0.707   1.864   4.928 -0.0353  0.4005 -0.1248
   23POPC   C4B  276   0.840   1.752   4.532 -0.0342  0.1056  0.3095
   24POPC   NC3  277   0.773   2.138   5.915  0.0631 -0.0224  0.1350
   24POPC   PO4  278   0.913   2.059   6.283 -0.0352  0.2512  0.2954
   24POPC   GL1  279   1.220   2.169   5.996 -0.0581 -0.2706  0.3577
   24POPC   GL2  280   1.261   1.862   5.817 -0.2022 -0.1942 -0.1296
   24POPC   C1A  281   1.128   2.361   5.589 -0.1865 -0.1566 -0.0232
   24POPC   D2A  282   1.101   2.435   5.097  0.4333  0.0159 -0.3013
   24POPC   C3A  283   0.848   2.801   5.128  0.0326  0.3812 -0.1404
   24POPC   C4A  284   0.534   3.021   4.892  0.4292 -0.0720  0.3426
   24POPC   C1B  285   1.483   2.053   5.437 -0.1038 -0.1413 -0.0067
   24POPC   C2B  286   1.561   1.970   5.008 -0.0173 -0.0398 -0.1161
   24POPC   C3B  287   1.679   1.938   4.527  0.0700  0.2111 -0.1691
   24POPC   C4B  288   2.096   1.945   4.314  0.2619  0.3507  0.3050
   25POPC   NC3  289   1.172   5.976   6.541 -0.1661 -0.3245  0.0727
   25POPC   PO4  290   1.172   5.601   6.716  0.2358 -0.5211  0.2389
   25POPC   GL1  291   1.332   5.614   6.271  0.1301  0.1268 -0.5187
   25POPC   GL2  292   1.498   5.427   6.073  0.0012 -0.1284 -0.0769
   25POPC   C1A  293   1.091   5.893   5.958 -0.5626  0.0749  0.0547
   25POPC   D2A  294   1.097   6.009   5.531 -0.4906  0.0318  0.1522
   25POPC   C3A  295   1.270   6.328   5.205 -0.1653  0.3313  0.3219
   25POPC   C4A  296   1.607   6.323   4.914 -0.1710  0.1355 -0.3372
   25POPC   C1B  297   1.321   5.556   5.633  0.4536  0.2352  0.0951
   25POPC   C2B  298   1.345   5.710   5.188  0.0731 -0.2928 -0.0871
   25POPC   C3B  299   1.122   5.936   4.863  0.3875  0.0309  0.0396
   25POPC   C4B  300   1.239   6.309   4.564  0.3862 -0.0707  0.0392
   26POPC   NC3  301   2.536   4.883   6.092  0.0806  0.2764  0.1325
   26POPC   PO4  302   2.610   5.169   6.376 -0.0201  0.2520 -0.0853
   26POPC   GL1  303   2.684   5.341   5.991  0.2200 -0.0886 -0.1673
   26POPC   GL2  304   2.817   5.132   5.801 -0.1881  0.0608  0.0402
   26POPC   C1A  305   2.563   5.523   5.531 -0.2028  0.3987 -0.2237
   26POPC   D2A  306   2.742   5.569   5.145 -0.1225  0.0299  0.0021
   26POPC   C3A  307   2.733   5.927   4.849  0.0781 -0.1569  0.1543
   26POPC   C4A  308   2.741   6.247   4.508  0.1147  0.2178 -0.0601
   26POPC   C1B  309   2.721   5.070   5.372  0.1191  0.0411 -0.0071
   26POPC   C2B  310   2.870   4.851   4.936  0.0806  0.0735 -0.2024
   26POPC   C3B  311   2.670   4.550   4.668 -0.2667 -0.0258  0.2386
   26POPC   C4B  312   2.430   4.113   4.778 -0.0015  0.1450  0.2775
   27POPC   NC3  313   5.228   3.628   6.194  0.1462 -0.0268  0.0703
   27POPC   PO4  314   5.191   3.935   6.415  0.0321  0.1807 -0.2015
   27POPC   GL1  315   5.152   4.041   6.065  0.0823 -0.1514 -0.1525
   27POPC   GL2  316   4.973   4.301   6.184  0.0483 -0.0531 -0.0804
   27POPC   C1A  317   5.081   4.315   5.715  0.0604 -0.5407 -0.1081
   27POPC   D2A  318   5.241   4.552   5.391  0.0552  0.1380 -0.0684
   27POPC   C3A  319   5.632   4.423   5.197 -0.1909  0.2301 -0.2107
   27POPC   C4A  320   5.942   4.257   4.943  0.0796 -0.2704 -0.2038
   27POPC   C1B  321   4.638   4.249   5.850 -0.1564 -0.1083  0.0152
   27POPC   C2B  322   4.667   4.111   5.404 -0.0344  0.2063  0.0483
   27POPC   C3B  323   4.447   3.870   5.112 -0.0973 -0.2677  0.0839
   27POPC   C4B  324   4.602   3.609   4.756  0.1107 -0.1670  0.0856
   28POPC   NC3  325   1.261   1.430   6.068 -0.1348 -0.1903  0.1618
   28POPC   PO4  326   0.878   1.632   6.075 -0.3960 -0.1290  0.0687
   28POPC   GL1  327   0.704   1.550   5.729  0.4375 -0.0701  0.3826
   28POPC   GL2  328   0.674   1.760   5.504 -0.1322 -0.1589 -0.0372
   28POPC   C1A  329   0.378   1.363   5.375 -0.1265 -0.1503  0.0630
   28POPC   D2A  330   0.283   1.479   4.941 -0.1003  0.0617  0.0816
   28POPC   C3A  331   0.091   1.653   4.604 -0.0788 -0.1871 -0.1740
   28POPC   C4A  332   0.059   1.564   4.172  0.0248 -0.2042  0.1788
   28POPC   C1B  333   1.048   1.894   5.284  0.3196 -0.4089 -0.1478
   28POPC   C2B  334   1.116   2.043   4.811 -0.0260 -0.1231  0.0015
   28POPC   C3B  335   1.440   2.343   4.649  0.2062  0.0488 -0.1226
   28POPC   C4B  336   1.402   2.630   4.266 -0.2607 -0.1305 -0.1186
   29POPC   NC3  337   6.194   0.494   6.708 -0.1066 -0.1438 -0.0298
   29POPC   PO4  338   6.289   0.658   6.353  0.0851  0.1542  0.1051
   29POPC   GL1  339   6.065   0.622   5.951 -0.1280  0.0067 -0.3487
   29POPC   GL2  340   6.219   0.578   5.790 -0.0232  0.2009  0.1770
   29POPC   C1A  341   5.724   0.702   5.682  0.2251  0.1046 -0.1590
   29POPC   D2A  342   5.380   0.959   5.537  0.0639 -0.3189  0.2867
   29POPC   C3A  343   5.090   0.752   5.777  0.1880 -0.0979 -0.0634
   29POPC   C4A  344   4.788   0.486   5.573 -0.3116 -0.1193  0.2198
   29POPC   C1B  345   5.974   0.324   5.474  0.0544  0.0842  0.2651
   29POPC   C2B  346   6.058   0.272   4.986  0.0641  0.1508 -0.1649
   29POPC   C3B  347   6.156   0.399   4.578  0.2162  0.1124  0.1316
   29POPC   C4B  348   6.019   0.164   4.230  0.0954 -0.0102 -0.1097
   30POPC   NC3  349   3.064   5.663   6.701 -0.0452 -0.2833 -0.2932
   30POPC   PO4  350   2.933   5.722   6.336  0.1221 -0.0546 -0.0964
   30POPC   GL1  351   3.100   5.712   6.038 -0.1709  0.0730  0.2216
   30POPC   GL2  352   3.322   5.737   6.055 -0.1751  0.1019  0.2812
   30POPC   C1A  353   3.051   5.627   5.637  0.3781  0.2142 -0.0898
   30POPC   D2A  354   3.136   5.301   5.382  0.0886 -0.1060 -0.0030
   30POPC   C3A  355   3.232   5.416   4.930  0.3231 -0.1407  0.2546
   30POPC   C4A  356   2.893   5.347   4.613  0.1506 -0.1895  0.1516
   30POPC   C1B  357   3.522   5.744   5.593  0.0254  0.2286 -0.1570
   30POPC   C2B  358   3.579   5.686   5.160 -0.0220 -0.0541  0.2272
   30POPC   C3B  359   3.873   5.889   4.894  0.0753  0.2510 -0.0312
   30POPC   C4B  360   4.044   5.857   4.476  0.1719  0.1644 -0.4627
   31POPC   NC3  361   2.344   0.499   6.946  0.1880 -0.0209  0.0812
   31POPC   PO4  362   2.428   0.456   6.585 -0.1987 -0.1116  0.2459
   31POPC   GL1  363   2.594   0.544   6.257 -0.1175  0.0706  0.2025
   31POPC   GL2  364   2.530   0.805   6.223 -0.1277  0.2306  0.0268
   31POPC   C1A  365   2.780   0.405   5.882 -0.1050  0.1327  0.2995
   31POPC   D2A  366   3.116   0.145   5.774 -0.1875  0.2828  0.1366
   31POPC   C3A  367   3.085   0.047   5.317 -0.0610  0.0442  0.0688
   31POPC   C4A  368   3.159  -0.166   4.888 -0.0611  0.2856  0.3354
   31POPC   C1B  369   2.775   0.905   5.776  0.3063 -0.0964  0.0791
   31POPC   C2B  370   2.861   1.093   5.357 -0.1665  0.0524 -0.1082
   31POPC   C3B  371   2.667   1.126   4.961 -0.2408 -0.0863 -0.0136
   31POPC   C4B  372   2.581   1.191   4.546 -0.0123 -0.0544 -0.1451
   32POPC   NC3  373   3.610   1.774   6.674  0.1070  0.0273  0.2555
   32POPC   PO4  374   3.272   1.907   6.583 -0.0163 -0.2464 -0.0679
   32POPC   GL1  375   3.470   2.098   6.316 -0.2189  0.1907 -0.2806
   32POPC   GL2  376   3.495   1.852   6.144  0.1216  0.2264  0.1370
   32POPC   C1A  377   3.737   2.352   6.036  0.1559  0.0134 -0.0542
   32POPC   D2A  378   4.132   2.314   5.863  0.1606 -0.1699  0.1110
   32POPC   C3A  379   4.136   2.209   5.401 -0.0050  0.3366  0.1448
   32POPC   C4A  380   4.258   1.883   5.052  0.0443 -0.3236  0.1766
   32POPC   C1B  381   3.220   2.245   5.995  0.1673 -0.1022  0.2711
   32POPC   C2B  382   3.333   2.456   5.625  0.1980  0.1375  0.0498
   32POPC   C3B  383   3.309   2.420   5.140  0.1601  0.3922  0.1539
   32POPC   C4B  384   3.381   2.136   4.799  0.1245  0.0595 -0.0449
   33POPC   NC3  385   0.087   4.730   6.339 -0.2202  0.2459 -0.2270
   33POPC   PO4  386   0.460   4.605   6.337  0.3689  0.0815  0.2311
   33POPC   GL1  387   0.369   4.522   5.969 -0.0652  0.0709  0.3463
   33POPC   GL2  388   0.245   4.278   5.929  0.0874  0.2634  0.0536
   33POPC   C1A  389   0.751   4.488   5.703 -0.0806  0.2921  0.1866
   33POPC   D2A  390   1.039   4.192   5.486  0.0110 -0.1961  0.1874
   33POPC   C3A  391   0.847   3.858   5.227  0.1940  0.0044  0.0267
   33POPC   C4A  392   0.692   3.560   4.915 -0.1093 -0.3344 -0.0783
   33POPC   C1B  393  -0.043   4.234   5.547 -0.4651  0.1908 -0.1778
   33POPC   C2B  394  -0.109   4.100   5.143  0.3977  0.3703 -0.2367
   33POPC   C3B  395  -0.193   3.981   4.648 -0.0813 -0.1718 -0.5048
   33POPC   C4B  396  -0.466   3.898   4.217 -0.3332  0.1660  0.2799
   34POPC   NC3  397   5.773   2.110   6.223  0.2426 -0.1030 -0.2314
   34POPC   PO4  398   5.457   2.364   6.202  0.0606 -0.2707 -0.4192
   34POPC   GL1  399   5.583   2.549   5.907 -0.1201  0.2961  0.5373
   34POPC   GL2  400   5.650   2.870   5.963  0.1760  0.0063 -0.2017
   34POPC   C1A  401   5.416   2.421   5.497  0.1234 -0.3174  0.0560
   34POPC   D2A  402   5.410   2.197   5.098  0.3827 -0.0686  0.2276
   34POPC   C3A  403   5.250   1.856   4.904 -0.4771 -0.2330 -0.1823
   34POPC   C4A  404   5.080   1.483   4.666  0.0139 -0.0587 -0.0418
   34POPC   C1B  405   5.823   2.713   5.572  0.0763  0.0971 -0.0502
   34POPC   C2B  406   5.857   2.797   5.107 -0.1802 -0.2077 -0.2144
   34POPC   C3B  407   6.022   2.556   4.777  0.0944 -0.1291 -0.5085
   34POPC   C4B  408   6.178   2.507   4.333  0.1677 -0.0502  0.0209
   35POPC   NC3  409   2.553   5.786   5.981  0.0086 -0.1922 -0.0110
   35POPC   PO4  410   2.551   6.116   6.231  0.2705  0.0726  0.3959
   35POPC   GL1  411   2.501   6.211   5.848  0.2081  0.2607 -0.0202
   35POPC   GL2  412   2.667   6.416   5.771 -0.2076  0.0314  0.2239
   35POPC   C1A  413   2.440   6.172   5.404  0.1805 -0.2047  0.1162
   35POPC   D2A  414   2.272   5.974   4.992 -0.2383 -0.0676  0.0543
   35POPC   C3A  415   2.288   6.138   4.561 -0.0923 -0.1230 -0.4265
   35POPC   C4A  416   2.423   6.332   4.169 -0.1948 -0.0724 -0.1449
   35POPC   C1B  417   2.650   6.723   5.437  0.2244  0.2352  0.0165
   35POPC   C2B  418   2.568   7.151   5.242 -0.0694 -0.1162  0.1593
   35POPC   C3B  419   2.323   7.285   4.899 -0.1561  0.1504  0.1037
   35POPC   C4B  420   2.173   7.738   4.862  0.2437 -0.0354  0.0260
   36POPC   NC3  421   3.560   6.434   6.682  0.3397 -0.3117 -0.0169
   36POPC   PO4  422   3.926   6.646   6.728 -0.1680 -0.0509  0.1165
   36POPC   GL1  423   4.029   6.690   6.381 -0.1821  0.0180 -0.0995
   36POPC   GL2  424   3.803   6.703   6.175 -0.1900 -0.0993 -0.3706
   36POPC   C1A  425   4.145   6.423   6.007 -0.2547 -0.0890  0.5954
   36POPC   D2A  426   4.378   6.330   5.615  0.0514 -0.2331 -0.0617
   36POPC   C3A  427   4.476   6.695   5.329 -0.0653  0.1437 -0.0814
   36POPC   C4A  428   4.661   7.042   5.132 -0.0372  0.2614  0.1841
   36POPC   C1B  429   3.648   6.805   5.764  0.2997  0.1962 -0.2018
   36POPC   C2B  430   3.575   6.990   5.349  0.2566 -0.1890 -0.2303
   36POPC   C3B  431   3.784   7.299   4.976 -0.2711 -0.3078 -0.3368
   36POPC   C4B  432   4.038   7.324   4.577  0.0057 -0.2492 -0.1376
   37POPC   NC3  433   0.336   6.493   6.123 -0.0912  0.2455  0.0802
   37POPC   PO4  434   0.600   6.768   6.119 -0.0183 -0.3240  0.0742
   37POPC   GL1  435   0.705   6.875   5.764 -0.1115 -0.1082 -0.2996
   37POPC   GL2  436   0.847   7.133   5.675 -0.0883  0.2472 -0.3103
   37POPC   C1A  437   0.489   6.934   5.372  0.0270 -0.1776 -0.2362
   37POPC   D2A  438   0.410   7.083   4.973 -0.0098 -0.0611  0.2283
   37POPC   C3A  439   0.496   7.004   4.473 -0.2767 -0.4076  0.0554
   37POPC   C4A  440   0.696   7.400   4.232  0.0446  0.1432 -0.0339
   37POPC   C1B  441   0.996   6.847   5.363  0.0030 -0.0579 -0.0273
   37POPC   C2B  442   1.254   6.860   4.983 -0.2169  0.0792  0.2199
   37POPC   C3B  443   1.571   6.909   4.603  0.0726  0.4226 -0.1296
   37POPC   C4B  444   1.630   6.852   4.144 -0.0035  0.1211  0.2939
   38POPC   NC3  445   2.373   4.876   6.652 -0.0261 -0.0835 -0.0918
   38POPC   PO4  446   2.096   4.890   6.353 -0.2872  0.0079 -0.2921
   38POPC   GL1  447   1.990   5.106   6.079 -0.1320 -0.3122  0.2770
   38POPC   GL2  448   2.234   5.334   6.069  0.0955 -0.0189  0.1741
   38POPC   C1A  449   1.700   5.163   5.748  0.3893  0.1714 -0.1349
   38POPC   D2A  450   1.354   5.058   5.504  0.0879 -0.0610 -0.0704
   38POPC   C3A  451   0.911   4.956   5.538 -0.0743 -0.3866 -0.1183
   38POPC   C4A  452   0.517   4.993   5.789 -0.0483 -0.0915 -0.1631
   38POPC   C1B  453   2.223   5.172   5.646 -0.0284 -0.0496 -0.1387
   38POPC   C2B  454   2.292   5.290   5.196 -0.0502 -0.1603  0.2235
   38POPC   C3B  455   2.419   5.472   4.793  0.0812  0.0722 -0.1075
   38POPC   C4B  456   2.548   5.649   4.448  0.3079 -0.0006  0.1671
   39POPC   NC3  457   1.436   3.909   5.748 -0.3460  0.0445 -0.0378
   39POPC   PO4  458   1.445   3.711   6.091  0.1102  0.0075  0.1587
   39POPC   GL1  459   1.744   3.609   5.981 -0.2187  0.0523 -0.0512
   39POPC   GL2  460   1.668   3.430   5.712  0.1135  0.1142 -0.1216
   39POPC   C1A  461   2.015   3.747   5.648  0.0528 -0.1642 -0.2151
   39POPC   D2A  462   2.279   3.800   5.321 -0.0090 -0.1640  0.0944
   39POPC   C3A  463   2.529   4.229   5.260 -0.0518  0.1447 -0.0147
   39POPC   C4A  464   2.958   4.371   5.201 -0.3574 -0.1038  0.0617
   39POPC   C1B  465   1.708   3.694   5.313  0.3004 -0.0887 -0.0463
   39POPC   C2B  466   1.914   3.968   5.013  0.0243  0.2148  0.0083
   39POPC   C3B  467   1.718   4.202   4.641 -0.0012  0.1341  0.0050
   39POPC   C4B  468   1.323   4.402   4.687  0.0135  0.2831  0.0885
   40POPC   NC3  469   3.273   2.957   6.607 -0.3600 -0.2744 -0.1327
   40POPC   PO4  470   3.501   3.282   6.483 -0.0638  0.1326  0.1110
   40POPC   GL1  471   3.584   3.212   6.108  0.1412  0.0819 -0.0190
   40POPC   GL2  472   3.329   3.026   6.059 -0.0438 -0.2839  0.1199
   40POPC   C1A  473   3.866   3.386   5.784 -0.2787 -0.0855 -0.0608
   40POPC   D2A  474   3.885   3.661   5.386 -0.2950  0.1545  0.1600
   40POPC   C3A  475   3.678   3.478   5.039  0.0765  0.2846 -0.0433
   40POPC   C4A  476   3.475   3.341   4.666  0.0975 -0.2653  0.3161
   40POPC   C1B  477   3.585   2.851   5.787  0.1399 -0.3209 -0.2174
   40POPC   C2B  478   3.739   2.645   5.403 -0.3331 -0.0765 -0.0628
   40POPC   C3B  479   3.870   2.483   5.006 -0.1263 -0.2382  0.2218
   40POPC   C4B  480   3.895   2.137   4.655  0.2048  0.0730 -0.1032
   41POPC   NC3  481   1.552   3.576   6.570  0.2875 -0.0553 -0.3599
   41POPC   PO4  482   1.850   3.394   6.462 -0.1789 -0.2077  0.0022
   41POPC   GL1  483   1.921   3.199   6.109  0.1059 -0.4257  0.2425
   41POPC   GL2  484   2.087   3.143   5.846  0.1699  0.1657  0.0838
   41POPC   C1A  485   1.727   2.830   5.964 -0.1921 -0.0276 -0.1075
   41POPC   D2A  486   1.307   2.817   5.934  0.2713 -0.2169  0.1245
   41POPC   C3A  487   1.411   2.967   5.477  0.3455  0.1051 -0.1088
   41POPC   C4A  488   1.535   3.272   5.100 -0.0231  0.1718 -0.1553
   41POPC   C1B  489   1.975   3.109   5.372 -0.1770  0.2859  0.0107
   41POPC   C2B  490   2.172   3.390   5.016  0.4816  0.0701  0.0962
   41POPC   C3B  491   2.457   3.645   4.722 -0.2210 -0.1254  0.0557
   41POPC   C4B  492   2.698   3.889   4.417  0.2689 -0.2837  0.0903
   42POPC   NC3  493   1.108   2.507   6.643 -0.1439 -0.4982 -0.0049
   42POPC   PO4  494   1.368   2.404   6.363  0.0104 -0.1104  0.1342
   42POPC   GL1  495   1.529   2.394   6.002  0.0803 -0.3655  0.0263
   42POPC   GL2  496   1.787   2.344   6.131 -0.0390 -0.2097 -0.2506
   42POPC   C1A  497   1.623   2.488   5.572 -0.1522  0.0036 -0.2977
   42POPC   D2A  498   1.667   2.461   5.104  0.0058 -0.0444 -0.2891
   42POPC   C3A  499   1.475   2.808   4.923  0.0163 -0.0652 -0.0691
   42POPC   C4A  500   1.552   3.114   4.587 -0.0886  0.0894 -0.0432
   42POPC   C1B  501   1.873   2.129   5.769 -0.3434  0.1192 -0.0300
   42POPC   C2B  502   1.947   2.184   5.312  0.0715 -0.0285  0.0921
   42POPC   C3B  503   2.037   2.257   4.861  0.0317  0.0588 -0.1584
   42POPC   C4B  504   1.902   2.419   4.491 -0.2863 -0.0039  0.2366
   43POPC   NC3  505   2.792   0.051   6.286  0.0688 -0.0758  0.1079
   43POPC   PO4  506   3.146   0.119   6.402 -0.3013 -0.0442 -0.0182
   43POPC   GL1  507   3.261  -0.200   6.272  0.1146  0.1597 -0.3973
   43POPC   GL2  508   3.072  -0.291   6.106 -0.0562 -0.2759  0.2034
   43POPC   C1A  509   3.520  -0.220   5.923  0.2994 -0.2491  0.4249
   43POPC   D2A  510   3.561  -0.271   5.447 -0.2657 -0.3638 -0.4596
   43POPC   C3A  511   3.627  -0.105   5.002 -0.0650 -0.0542  0.2049
   43POPC   C4A  512   3.424   0.301   4.891  0.1782 -0.1051  0.1266
   43POPC   C1B  513   3.070  -0.372   5.615  0.3825  0.1362 -0.1825
   43POPC   C2B  514   3.094  -0.609   5.215  0.0774  0.2422 -0.1749
   43POPC   C3B  515   3.239  -0.601   4.757  0.1835 -0.0860 -0.1455
   43POPC   C4B  516   3.034  -0.661   4.351 -0.1062 -0.1198 -0.1398
   44POPC   NC3  517   4.329   4.446   6.383 -0.1103 -0.1234  0.5926
   44POPC   PO4  518   4.695   4.556   6.508  0.1858 -0.2930 -0.0845
   44POPC   GL1  519   4.752   4.750   6.181 -0.0178  0.3208  0.1799
   44POPC   GL2  520   4.491   4.935   6.115 -0.0131  0.0160  0.2099
   44POPC   C1A  521   5.169   4.745   5.974 -0.1126 -0.0035 -0.3698
   44POPC   D2A  522   5.525   4.507   5.827  0.0642 -0.1918  0.0156
   44POPC   C3A  523   5.981   4.426   5.634  0.3680  0.2938 -0.0337
   44POPC   C4A  524   6.189   4.618   5.289 -0.0974  0.2637  0.1354
   44POPC   C1B  525   4.377   5.052   5.669  0.0790 -0.0962  0.1888
   44POPC   C2B  526   4.483   5.324   5.334  0.1332 -0.0871  0.1066
   44POPC   C3B  527   4.587   5.497   4.902  0.3162  0.4223 -0.1578
   44POPC   C4B  528   4.801   5.669   4.558 -0.1673  0.3010 -0.1004
   45POPC   NC3  529   5.373   2.810   6.449  0.0958 -0.1832  0.1419
   45POPC   PO4  530   5.392   3.165   6.280 -0.1634  0.0908  0.0539
   45POPC   GL1  531   5.217   3.243   5.950 -0.5934 -0.1237  0.0512
   45POPC   GL2  532   5.465   3.338   5.803  0.1129 -0.4354  0.1541
   45POPC   C1A  533   4.924   3.077   5.660  0.3164  0.0134  0.0338
   45POPC   D2A  534   4.550   3.139   5.444  0.2460  0.0800  0.1092
   45POPC   C3A  535   4.285   3.321   5.131  0.0046 -0.1225  0.1506
   45POPC   C4A  536   4.071   3.621   4.797  0.2920 -0.2038  0.0114
   45POPC   C1B  537   5.379   2.968   5.524  0.2151  0.2290 -0.3568
   45POPC   C2B  538   5.377   2.801   5.078  0.1731  0.0915  0.4157
   45POPC   C3B  539   5.530   2.454   4.710  0.4042  0.0966 -0.2364
   45POPC   C4B  540   5.745   2.155   4.430 -0.0331 -0.0411 -0.2185
   46POPC   NC3  541   2.770   3.185   6.643  0.0091 -0.1126  0.2391
   46POPC   PO4  542   2.957   3.269   6.346  0.2712 -0.0566 -0.0742
   46POPC   GL1  543   2.907   3.174   5.994  0.0084 -0.0088 -0.0369
   46POPC   GL2  544   2.584   3.127   6.000 -0.0175  0.2775 -0.2948
   46POPC   C1A  545   2.968   3.285   5.551  0.0621  0.5594  0.0779
   46POPC   D2A  546   2.707   3.407   5.160 -0.5138  0.1688  0.1518
   46POPC   C3A  547   2.875   3.875   5.055 -0.0286  0.2457 -0.0111
   46POPC   C4A  548   3.031   4.241   4.758 -0.4189 -0.1714  0.1574
   46POPC   C1B  549   2.480   2.966   5.589 -0.2259  0.1219 -0.1410
   46POPC   C2B  550   2.424   3.013   5.133 -0.2144  0.3708 -0.2003
   46POPC   C3B  551   2.502   3.055   4.707  0.2102  0.1690  0.2777
   46POPC   C4B  552   2.600   3.316   4.346  0.0781 -0.3859 -0.1325
   47POPC   NC3  553   6.462   2.004   6.001  0.1152 -0.2701  0.1468
   47POPC   PO4  554   6.639   2.387   6.074  0.1073 -0.3886  0.0339
   47POPC   GL1  555   6.346   2.360   5.753 -0.4661 -0.1135  0.0335
   47POPC   GL2  556   6.497   2.639   5.650 -0.0668  0.1984 -0.0073
   47POPC   C1A  557   6.338   2.048   5.421  0.1323  0.0658 -0.0090
   47POPC   D2A  558   6.046   1.753   5.323  0.2046 -0.1887  0.0170
   47POPC   C3A  559   5.569   1.810   5.355  0.1950 -0.1363 -0.1741
   47POPC   C4A  560   5.168   1.964   5.416  0.2147 -0.5217  0.1195
   47POPC   C1B  561   6.719   2.585   5.251 -0.0579 -0.1245 -0.1048
   47POPC   C2B  562   6.532   2.750   4.818  0.0313  0.4059 -0.4734
   47POPC   C3B  563   6.596   2.938   4.405 -0.0862  0.1946 -0.1591
   47POPC   C4B  564   6.926   2.970   4.043  0.2918  0.1667 -0.1351
   48POPC   NC3  565   3.088   1.456   6.169 -0.0087  0.3274 -0.0227
   48POPC   PO4  566   3.463   1.390   6.354 -0.4596  0.0337  0.0351
   48POPC   GL1  567   3.492   1.107   6.112  0.0856 -0.0361 -0.1598
   48POPC   GL2  568   3.778   1.135   6.066 -0.1575 -0.1404 -0.0736
   48POPC   C1A  569   3.466   1.037   5.679 -0.2175  0.0175 -0.0276
   48POPC   D2A  570   3.319   0.960   5.221  0.2103  0.0771  0.0695
   48POPC   C3A  571   3.116   1.235   4.806 -0.0982  0.0934 -0.4127
   48POPC   C4A  572   3.225   1.680   4.671 -0.1106  0.2727  0.1130
   48POPC   C1B  573   3.932   1.245   5.643  0.1684 -0.1939 -0.3259
   48POPC   C2B  574   3.895   1.226   5.220  0.0523  0.0200  0.1080
   48POPC   C3B  575   4.106   1.356   4.811  0.0969 -0.2099 -0.0069
   48POPC   C4B  576   4.558   1.357   4.809 -0.1946 -0.2954  0.0222
   49POPC   NC3  577   1.618   0.743   6.053  0.0443 -0.1535 -0.0287
   49POPC   PO4  578   1.288   0.931   5.938 -0.0728 -0.2636  0.1751
   49POPC   GL1  579   1.239   1.123   5.618  0.0735  0.2072  0.0979
   49POPC   GL2  580   1.352   1.038   5.422  0.0158 -0.2996 -0.1383
   49POPC   C1A  581   0.939   1.343   5.354  0.1492 -0.0944  0.2382
   49POPC   D2A  582   0.768   1.348   4.979 -0.2815  0.4570  0.2375
   49POPC   C3A  583   0.908   1.186   4.585  0.0882  0.0866  0.1096
   49POPC   C4A  584   0.944   1.374   4.155 -0.0569 -0.1529 -0.1303
   49POPC   C1B  585   1.411   0.963   4.967 -0.0013  0.0568 -0.0618
   49POPC   C2B  586   1.297   0.850   4.510  0.0860 -0.2399  0.0374
   49POPC   C3B  587   1.167   0.848   4.031 -0.2883  0.0045  0.0213
   49POPC   C4B  588   1.211   0.915   3.570  0.0688  0.0328 -0.1348
   50POPC   NC3  589   3.951   3.154   6.444 -0.1830 -0.2877  0.1315
   50POPC   PO4  590   4.273   3.134   6.660  0.4653  0.0239 -0.3482
   50POPC   GL1  591   4.375   3.032   6.264  0.1150  0.2801 -0.3423
   50POPC   GL2  592   4.247   2.736   6.280  0.4285  0.0159 -0.0042
   50POPC   C1A  593   4.375   3.303   5.875  0.2360 -0.0663 -0.0370
   50POPC   D2A  594   4.392   3.621   5.518 -0.0535 -0.1227 -0.1902
   50POPC   C3A  595   4.823   3.639   5.325 -0.0733  0.2916 -0.0581
   50POPC   C4A  596   5.102   3.238   5.257  0.2222  0.1931 -0.4075
   50POPC   C1B  597   4.056   2.916   5.934 -0.1226 -0.1639 -0.2447
   50POPC   C2B  598   4.043   3.051   5.484  0.1170 -0.0880  0.1115
   50POPC   C3B  599   3.852   3.014   5.089 -0.2761 -0.0489 -0.0383
   50POPC   C4B  600   3.950   3.138   4.640 -0.0580  0.1487  0.1960
   51POPC   NC3  601   5.244   0.023   6.946  0.3121 -0.4943  0.5170
   51POPC   PO4  602   5.161   0.410   6.816  0.0510  0.2751  0.0973
   51POPC   GL1  603   5.350   0.294   6.506 -0.3047 -0.2059  0.0535
   51POPC   GL2  604   5.485   0.046   6.456 -0.1155 -0.0580 -0.2740
   51POPC   C1A  605   5.388   0.461   6.087  0.1419 -0.1785 -0.0558
   51POPC   D2A  606   5.281   0.272   5.663  0.5406  0.0458 -0.2878
   51POPC   C3A  607   5.201   0.576   5.324 -0.2078  0.0860  0.0481
   51POPC   C4A  608   5.403   0.796   4.980  0.1374  0.2593 -0.0825
   51POPC   C1B  609   5.141  -0.043   6.147  0.2068 -0.0679 -0.1356
   51POPC   C2B  610   4.698   0.155   5.963 -0.2385  0.2583  0.2082
   51POPC   C3B  611   4.295   0.291   5.787  0.1461 -0.0212  0.2234
   51POPC   C4B  612   3.989   0.068   5.490 -0.3082 -0.0117  0.1359
   52POPC   NC3  613   1.529   0.292   6.709 -0.2098  0.0539 -0.1457
   52POPC   PO4  614   1.662   0.331   6.340  0.1530  0.2698 -0.3159
   52POPC   GL1  615   1.526   0.151   6.021  0.0884 -0.1279  0.2603
   52POPC   GL2  616   1.443  -0.172   6.099  0.0460  0.0753  0.0409
   52POPC   C1A  617   1.120   0.040   5.807 -0.1915  0.0326 -0.2030
   52POPC   D2A  618   0.684  -0.026   5.496 -0.1598  0.4239  0.1543
   52POPC   C3A  619   0.230  -0.131   5.553  0.1644  0.0355  0.1828
   52POPC   C4A  620  -0.160  -0.100   5.274  0.3155  0.2363  0.3500
   52POPC   C1B  621   1.616  -0.081   5.642  0.1243  0.0992 -0.2411
   52POPC   C2B  622   1.688   0.277   5.291  0.0473  0.2188 -0.1571
   52POPC   C3B  623   1.873   0.599   5.039  0.0945 -0.0686 -0.1805
   52POPC   C4B  624   1.832   0.932   4.678 -0.2402  0.1166  0.1233
   53POPC   NC3  625   6.080   4.360   6.697 -0.0570 -0.0952  0.1133
   53POPC   PO4  626   6.149   4.646   6.468 -0.0336 -0.0296  0.1210
   53POPC   GL1  627   6.166   4.765   6.247  0.0478  0.0012  0.2340
   53POPC   GL2  628   6.009   4.751   5.995  0.0319 -0.0323 -0.0659
   53POPC   C1A  629   6.445   4.676   5.862 -0.1233  0.1721 -0.0372
   53POPC   D2A  630   6.771   4.652   5.536 -0.0539 -0.1046 -0.0872
   53POPC   C3A  631   6.639   4.750   5.101 -0.0958  0.1751  0.0877
   53POPC   C4A  632   6.426   4.492   4.848  0.1270  0.4547 -0.3266
   53POPC   C1B  633   5.600   4.965   5.937  0.2596 -0.0717 -0.2776
   53POPC   C2B  634   5.256   5.030   5.587 -0.0289 -0.1442  0.0833
   53POPC   C3B  635   5.003   5.029   5.153  0.1581 -0.1022  0.0979
   53POPC   C4B  636   5.252   5.132   4.776  0.1524 -0.0319  0.1052
   54POPC   NC3  637   1.395   4.178   6.440 -0.1804  0.1133  0.0812
   54POPC   PO4  638   1.217   4.340   6.124 -0.0479  0.2409 -0.0591
   54POPC   GL1  639   1.231   4.637   5.726 -0.1999  0.2226 -0.0025
   54POPC   GL2  640   1.488   4.488   5.688 -0.0560  0.0501  0.0153
   54POPC   C1A  641   1.175   4.636   5.208 -0.1310 -0.0344  0.0357
   54POPC   D2A  642   0.973   4.763   4.792 -0.0340  0.0886 -0.0813
   54POPC   C3A  643   0.688   5.105   4.602 -0.1359  0.0039  0.0110
   54POPC   C4A  644   0.755   5.594   4.539 -0.1036 -0.1131 -0.0067
   54POPC   C1B  645   1.579   4.199   5.367  0.1597 -0.3141 -0.5387
   54POPC   C2B  646   1.335   4.027   5.065 -0.1623 -0.0014  0.1101
   54POPC   C3B  647   0.994   3.947   4.769  0.1508  0.1083  0.5155
   54POPC   C4B  648   0.772   4.167   4.469 -0.0688 -0.1293  0.1667
   55POPC   NC3  649   0.478   3.334   6.009  0.0260  0.1051 -0.1140
   55POPC   PO4  650   0.855   3.309   6.108 -0.0140 -0.4262  0.0761
   55POPC   GL1  651   0.913   3.369   5.699  0.3160  0.1233 -0.3359
   55POPC   GL2  652   1.175   3.382   5.683  0.1176  0.0421 -0.0073
   55POPC   C1A  653   0.572   3.329   5.352 -0.2187 -0.0069 -0.0758
   55POPC   D2A  654   0.255   3.585   5.190  0.0398  0.0995 -0.0036
   55POPC   C3A  655   0.048   3.317   4.878  0.2844  0.1987 -0.1886
   55POPC   C4A  656  -0.341   3.074   4.716 -0.0487 -0.3036  0.1165
   55POPC   C1B  657   1.014   3.308   5.222  0.0812  0.1442  0.0931
   55POPC   C2B  658   1.033   3.199   4.780  0.1550 -0.0086  0.4256
   55POPC   C3B  659   1.127   3.301   4.338 -0.0565 -0.0465 -0.0124
   55POPC   C4B  660   1.234   3.337   3.922 -0.0687 -0.0157 -0.0100
   56POPC   NC3  661   1.927   5.548   6.395  0.2936  0.1425 -0.1971
   56POPC   PO4  662   1.678   5.797   6.528 -0.4219  0.2186  0.2943
   56POPC   GL1  663   1.739   5.956   6.232 -0.2284  0.0924 -0.1285
   56POPC   GL2  664   2.007   5.972   6.075  0.2083 -0.2552 -0.3192
   56POPC   C1A  665   1.572   5.930   5.794  0.0235 -0.1226 -0.0153
   56POPC   D2A  666   1.773   5.949   5.341  0.1514 -0.2108 -0.0431
   56POPC   C3A  667   1.987   6.342   5.182 -0.0994  0.2796 -0.4323
   56POPC   C4A  668   2.254   6.740   5.147 -0.3210 -0.2787 -0.2812
   56POPC   C1B  669   2.074   5.684   5.680  0.0372 -0.3937  0.1103
   56POPC   C2B  670   1.807   5.473   5.389 -0.3365 -0.1633  0.2154
   56POPC   C3B  671   1.844   5.406   4.923  0.0093 -0.1087  0.0435
   56POPC   C4B  672   1.449   5.509   4.654 -0.0938  0.0413 -0.0662
   57POPC   NC3  673   2.593   4.360   6.190 -0.0899  0.1898  0.2189
   57POPC   PO4  674   2.394   4.045   6.187  0.0332 -0.3226 -0.0316
   57POPC   GL1  675   2.323   4.336   5.822  0.3404  0.1456  0.1461
   57POPC   GL2  676   2.143   4.529   5.939 -0.1126 -0.4334  0.0302
   57POPC   C1A  677   2.072   4.371   5.383  0.1626  0.0941 -0.0826
   57POPC   D2A  678   1.804   4.530   5.051  0.0288 -0.0272 -0.1303
   57POPC   C3A  679   1.813   4.871   4.727  0.0917  0.1744  0.2232
   57POPC   C4A  680   1.661   5.086   4.354  0.2112 -0.1695 -0.1554
   57POPC   C1B  681   1.938   4.786   5.629 -0.2326  0.0868  0.1455
   57POPC   C2B  682   1.756   5.012   5.242 -0.0425  0.0522 -0.1582
   57POPC   C3B  683   1.423   5.029   5.010 -0.0809 -0.3424 -0.0509
   57POPC   C4B  684   1.009   5.172   5.089 -0.2588  0.1212  0.2420
   58POPC   NC3  685   0.262   0.544   6.324 -0.0641 -0.0827  0.1342
   58POPC   PO4  686   0.121   0.221   6.504 -0.0586  0.3182 -0.1340
   58POPC   GL1  687  -0.199   0.221   6.258 -0.3674  0.1308  0.3281
   58POPC   GL2  688  -0.202  -0.077   6.197  0.2845 -0.0734  0.2158
   58POPC   C1A  689  -0.553   0.180   5.970  0.2343  0.1279 -0.1017
   58POPC   D2A  690  -0.907  -0.187   5.975 -0.2752 -0.1717  0.1293
   58POPC   C3A  691  -1.038  -0.437   5.647 -0.0996  0.0911  0.0145
   58POPC   C4A  692  -1.369  -0.567   5.330 -0.1616  0.3922 -0.0166
   58POPC   C1B  693  -0.146   0.056   5.767 -0.2144 -0.1559 -0.2494
   58POPC   C2B  694   0.015   0.359   5.414 -0.1163  0.0824  0.2810
   58POPC   C3B  695  -0.117   0.641   5.066  0.2169  0.3689  0.2321
   58POPC   C4B  696  -0.380   0.958   4.822  0.3375  0.3200  0.0944
   59POPC   NC3  697   0.073   6.194   6.546 -0.0494  0.1129 -0.0998
   59POPC   PO4  698   0.506   6.229   6.574  0.2705  0.1471  0.3105
   59POPC   GL1  699   0.476   5.980   6.253 -0.0796  0.4308  0.0422
   59POPC   GL2  700   0.227   5.810   6.267 -0.2536 -0.0183  0.1619
   59POPC   C1A  701   0.594   6.064   5.815  0.1624  0.0786  0.0188
   59POPC   D2A  702   0.522   6.008   5.381 -0.2838 -0.1690  0.1272
   59POPC   C3A  703   0.275   6.294   5.042 -0.2623  0.0571  0.1776
   59POPC   C4A  704  -0.053   6.227   4.768  0.0195  0.1205  0.2252
   59POPC   C1B  705   0.056   6.062   5.906 -0.0580  0.0010  0.0391
   59POPC   C2B  706  -0.400   6.178   5.840  0.3226  0.1097  0.1810
   59POPC   C3B  707  -0.656   6.338   5.450 -0.1070 -0.1240  0.1825
   59POPC   C4B  708  -1.116   6.404   5.349 -0.0425  0.3345  0.1353
   60POPC   NC3  709   5.818   1.552   6.519 -0.1414 -0.4013  0.2352
   60POPC   PO4  710   6.053   1.684   6.242  0.1103  0.1622  0.1237
   60POPC   GL1  711   5.867   1.785   5.925  0.1588  0.0461 -0.2407
   60POPC   GL2  712   5.696   1.597   5.925 -0.4443  0.0800  0.1459
   60POPC   C1A  713   5.843   2.116   5.681  0.0882 -0.1313  0.0112
   60POPC   D2A  714   5.852   2.219   5.230 -0.0221  0.0465 -0.0529
   60POPC   C3A  715   5.764   1.915   4.902  0.0724 -0.2783  0.3347
   60POPC   C4A  716   5.600   1.663   4.473 -0.0988 -0.0502 -0.2393
   60POPC   C1B  717   5.286   1.446   5.625 -0.0755  0.1167 -0.0828
   60POPC   C2B  718   5.083   1.480   5.248 -0.0082  0.3406  0.3126
   60POPC   C3B  719   4.758   1.728   5.051 -0.1403 -0.0066 -0.3366
   60POPC   C4B  720   4.593   1.817   4.632 -0.2110 -0.0076  0.0152
   61POPC   NC3  721   3.109   5.245   6.207 -0.0568 -0.1631  0.2876
   61POPC   PO4  722   3.393   5.378   6.477  0.0894 -0.4032  0.0854
   61POPC   GL1  723   3.642   5.325   6.210  0.0679 -0.1475 -0.3977
   61POPC   GL2  724   3.761   5.593   6.247 -0.0922 -0.0626 -0.1000
   61POPC   C1A  725   3.478   5.299   5.774  0.0827 -0.2522 -0.0768
   61POPC   D2A  726   3.644   5.189   5.322 -0.3627 -0.1100 -0.1274
   61POPC   C3A  727   4.110   5.047   5.242  0.1870 -0.0136 -0.0058
   61POPC   C4A  728   4.459   4.900   4.997 -0.2110  0.3253  0.1236
   61POPC   C1B  729   3.853   5.926   5.969 -0.1168  0.0234 -0.1452
   61POPC   C2B  730   3.993   6.074   5.528  0.0373 -0.2216  0.1767
   61POPC   C3B  731   4.107   6.223   5.151  0.0090  0.3106 -0.1786
   61POPC   C4B  732   4.380   6.548   4.876 -0.0593 -0.1596 -0.0731
   62POPC   NC3  733   3.227   4.407   6.212  0.1240 -0.0731 -0.0989
   62POPC   PO4  734   3.056   4.668   5.978  0.0428  0.2254 -0.2501
   62POPC   GL1  735   2.854   4.370   5.782 -0.1987  0.3339  0.2563
   62POPC   GL2  736   3.150   4.216   5.688 -0.0025  0.0478  0.3008
   62POPC   C1A  737   2.560   4.635   5.525  0.0222  0.3135  0.3153
   62POPC   D2A  738   2.269   4.813   5.202  0.5621  0.0557  0.1981
   62POPC   C3A  739   2.330   4.986   4.739 -0.0114  0.0551 -0.0396
   62POPC   C4A  740   2.586   4.896   4.334 -0.1247  0.1286 -0.3160
   62POPC   C1B  741   3.040   3.794   5.522  0.0653  0.1863  0.1201
   62POPC   C2B  742   3.215   3.474   5.209 -0.0105  0.0421  0.1102
   62POPC   C3B  743   3.047   3.194   4.905 -0.0332  0.0611  0.1602
   62POPC   C4B  744   2.959   3.000   4.425 -0.0978 -0.4120  0.0835
   63POPC   NC3  745   2.085   1.539   6.598  0.3011  0.0746 -0.2451
   63POPC   PO4  746   2.058   1.132   6.499  0.1927 -0.1514 -0.1649
   63POPC   GL1  747   2.278   1.276   6.124  0.0287 -0.0147  0.0709
   63POPC   GL2  748   2.045   1.174   5.990 -0.1927 -0.2084 -0.0507
   63POPC   C1A  749   2.632   1.406   5.837 -0.4211  0.0444 -0.1282
   63POPC   D2A  750   3.052   1.374   5.656 -0.2270 -0.1740  0.1204
   63POPC   C3A  751   2.956   1.606   5.252 -0.1686  0.3025  0.0103
   63POPC   C4A  752   2.753   1.632   4.856 -0.3661  0.1251  0.2555
   63POPC   C1B  753   1.712   1.282   5.683 -0.0104 -0.2656 -0.1164
   63POPC   C2B  754   1.449   1.583   5.370 -0.0647  0.3620 -0.4912
   63POPC   C3B  755   1.232   1.588   4.978 -0.1374  0.6482  0.1950
   63POPC   C4B  756   1.312   1.521   4.534  0.1716  0.0426 -0.0399
   64POPC   NC3  757   3.580   5.088   6.883  0.0990 -0.0424 -0.3157
   64POPC   PO4  758   3.888   4.930   6.712  0.3699 -0.0621  0.0776
   64POPC   GL1  759   3.991   4.897   6.347 -0.0502 -0.2593 -0.6656
   64POPC   GL2  760   4.118   5.231   6.347 -0.0273  0.0720 -0.2298
   64POPC   C1A  761   4.152   4.657   5.938  0.0228  0.0420 -0.0035
   64POPC   D2A  762   4.277   4.621   5.498 -0.0952  0.2618  0.1251
   64POPC   C3A  763   4.358   4.385   5.068  0.2022 -0.2587 -0.3323
   64POPC   C4A  764   4.393   4.122   4.666 -0.1219 -0.1979  0.0294
   64POPC   C1B  765   3.928   5.094   5.963  0.0180  0.0461  0.0640
   64POPC   C2B  766   3.820   4.788   5.617 -0.0849 -0.0481  0.2088
   64POPC   C3B  767   3.802   4.594   5.152  0.3464  0.0235  0.0187
   64POPC   C4B  768   3.489   4.384   4.892  0.1189 -0.1641  0.0512
   65POPC   NC3  769   4.027   3.640   2.715 -0.0085  0.0727 -0.2735
   65POPC   PO4  770   3.744   3.932   2.758  0.0395 -0.1386 -0.2619
   65POPC   GL1  771   3.638   3.637   3.009 -0.0401  0.1170  0.2313
   65POPC   GL2  772   3.386   3.728   2.993 -0.1109  0.0486  0.5217
   65POPC   C1A  773   3.713   3.685   3.438 -0.0990 -0.1879  0.0989
   65POPC   D2A  774   4.023   3.874   3.703 -0.1024 -0.1357 -0.0429
   65POPC   C3A  775   4.065   3.924   4.191  0.0177  0.4058 -0.0806
   65POPC   C4A  776   4.475   3.717   4.286  0.0761  0.3318  0.0036
   65POPC   C1B  777   3.282   4.021   3.439 -0.0209 -0.1824  0.1562
   65POPC   C2B  778   3.137   4.328   3.793 -0.0750  0.1175 -0.1702
   65POPC   C3B  779   3.193   4.612   4.194 -0.0188  0.0145  0.0600
   65POPC   C4B  780   3.271   4.906   4.526 -0.2127 -0.1562  0.1120
   66POPC   NC3  781   1.101   0.423   2.665  0.0332  0.1058 -0.0100
   66POPC   PO4  782   0.761   0.360   2.503 -0.0125  0.1197 -0.1231
   66POPC   GL1  783   0.679   0.231   2.916  0.0332  0.0326 -0.2142
   66POPC   GL2  784   0.766  -0.038   2.935 -0.1287 -0.1068 -0.1010
   66POPC   C1A  785   0.312   0.157   3.170 -0.0472  0.1459 -0.4179
   66POPC   D2A  786   0.281   0.330   3.610  0.0009  0.2797 -0.0419
   66POPC   C3A  787   0.486   0.269   4.014 -0.4180 -0.1329 -0.1499
   66POPC   C4A  788   0.790   0.022   4.242  0.1493 -0.3720 -0.2419
   66POPC   C1B  789   0.597  -0.247   3.273  0.0174 -0.1441 -0.1511
   66POPC   C2B  790   0.254  -0.178   3.593 -0.1118 -0.1610 -0.3794
   66POPC   C3B  791   0.275  -0.143   4.097 -0.2249  0.2295 -0.0852
   66POPC   C4B  792   0.415  -0.048   4.534  0.0697 -0.3844 -0.2763
   67POPC   NC3  793   0.766   5.981   2.757 -0.2329  0.0449  0.0981
   67POPC   PO4  794   0.526   5.701   2.581  0.1549  0.2924 -0.0536
   67POPC   GL1  795   0.390   5.645   2.932 -0.2145 -0.3456  0.2230
   67POPC   GL2  796   0.145   5.800   2.979 -0.1145  0.2792  0.3698
   67POPC   C1A  797   0.626   5.764   3.334  0.0445 -0.0777  0.2026
   67POPC   D2A  798   0.935   5.517   3.616 -0.1002  0.1587 -0.3832
   67POPC   C3A  799   1.127   5.116   3.658 -0.0449 -0.0086 -0.1344
   67POPC   C4A  800   1.264   4.768   3.355 -0.1267  0.1157 -0.0519
   67POPC   C1B  801   0.005   5.923   3.412  0.1762 -0.1957 -0.1410
   67POPC   C2B  802   0.175   5.776   3.800  0.1423  0.2336  0.2351
   67POPC   C3B  803   0.527   5.806   4.148  0.0900 -0.0496  0.0141
   67POPC   C4B  804   0.793   6.019   4.428 -0.1346 -0.5314 -0.1549
   68POPC   NC3  805   1.403   5.107   2.689  0.1322  0.1348  0.2900
   68POPC   PO4  806   1.059   4.962   2.629 -0.0123 -0.0521 -0.2818
   68POPC   GL1  807   1.022   5.155   2.922  0.4775 -0.0853 -0.0283
   68POPC   GL2  808   0.860   5.388   2.904  0.0294 -0.1972  0.1600
   68POPC   C1A  809   1.316   5.348   3.202 -0.0500  0.1516 -0.2402
   68POPC   D2A  810   1.459   5.504   3.637  0.0762 -0.1374 -0.1303
   68POPC   C3A  811   1.323   5.356   4.082 -0.1824 -0.0385 -0.1328
   68POPC   C4A  812   1.177   5.077   4.444 -0.1246 -0.1656  0.0056
   68POPC   C1B  813   0.795   5.138   3.295 -0.0039  0.2563  0.0104
   68POPC   C2B  814   0.766   4.737   3.443 -0.1641 -0.2059  0.0852
   68POPC   C3B  815   0.888   4.636   3.849 -0.1151  0.5882  0.0067
   68POPC   C4B  816   0.804   4.731   4.304  0.1818 -0.0619 -0.1226
   69POPC   NC3  817   4.849   3.544   2.576  0.1169  0.1940  0.2811
   69POPC   PO4  818   5.103   3.866   2.655  0.0395 -0.0900  0.2676
   69POPC   GL1  819   5.185   3.674   2.937  0.1348  0.0852 -0.0005
   69POPC   GL2  820   5.027   3.775   3.182  0.2146 -0.1478 -0.1654
   69POPC   C1A  821   5.347   3.402   3.278 -0.2188 -0.4523  0.0856
   69POPC   D2A  822   5.503   3.042   3.618  0.1177  0.1747  0.0542
   69POPC   C3A  823   5.642   3.086   4.049  0.2327  0.1956  0.2348
   69POPC   C4A  824   5.713   2.906   4.492 -0.2298  0.0252  0.2611
   69POPC   C1B  825   5.079   3.679   3.650  0.1054 -0.2882 -0.1632
   69POPC   C2B  826   5.246   3.415   3.975  0.0271  0.0582 -0.1495
   69POPC   C3B  827   5.100   3.061   4.297  0.0892  0.0944  0.2541
   69POPC   C4B  828   5.092   2.711   4.619 -0.1874  0.0085  0.1301
   70POPC   NC3  829   1.811   5.978   2.378 -0.0970  0.2990 -0.2676
   70POPC   PO4  830   2.096   6.210   2.399 -0.0402  0.1494  0.0004
   70POPC   GL1  831   2.111   6.159   2.815  0.0723  0.1049 -0.3286
   70POPC   GL2  832   2.109   5.863   2.788 -0.0372 -0.1980  0.1867
   70POPC   C1A  833   2.269   6.090   3.236  0.0500 -0.1208 -0.1579
   70POPC   D2A  834   2.204   6.121   3.734  0.0822 -0.1880 -0.0783
   70POPC   C3A  835   2.286   5.721   3.952  0.0401  0.2488 -0.0384
   70POPC   C4A  836   2.505   5.300   4.036  0.3380 -0.2426 -0.0734
   70POPC   C1B  837   2.193   5.546   3.143  0.0687 -0.0400  0.0498
   70POPC   C2B  838   2.040   5.435   3.564  0.0407 -0.1028 -0.0701
   70POPC   C3B  839   1.872   5.346   3.990 -0.0335  0.0070  0.2792
   70POPC   C4B  840   2.126   5.206   4.343  0.2509  0.0577 -0.1857
   71POPC   NC3  841   3.435   6.407   2.681  0.2865 -0.1170  0.2918
   71POPC   PO4  842   3.499   6.779   2.777 -0.1378 -0.2118 -0.1109
   71POPC   GL1  843   3.505   6.725   3.113  0.0836  0.1055  0.2633
   71POPC   GL2  844   3.518   6.420   3.161 -0.1156  0.0009 -0.4901
   71POPC   C1A  845   3.479   6.907   3.539 -0.0780 -0.0287  0.0471
   71POPC   D2A  846   3.582   7.217   3.862  0.1131 -0.1519  0.0454
   71POPC   C3A  847   3.881   6.997   4.177  0.1408  0.0904 -0.0577
   71POPC   C4A  848   4.283   6.986   4.366 -0.2230  0.3687  0.2329
   71POPC   C1B  849   3.153   6.093   3.053 -0.2623 -0.0052 -0.1212
   71POPC   C2B  850   3.155   5.694   3.267 -0.2130  0.2096 -0.3513
   71POPC   C3B  851   3.298   5.584   3.706  0.3012 -0.0805 -0.1032
   71POPC   C4B  852   3.616   5.540   4.010 -0.0310 -0.4136 -0.2353
   72POPC   NC3  853   6.040   0.117   2.371 -0.1310 -0.3271 -0.0988
   72POPC   PO4  854   5.980  -0.256   2.525  0.3351 -0.1139  0.0757
   72POPC   GL1  855   6.346  -0.273   2.796  0.1386  0.0664  0.0036
   72POPC   GL2  856   6.290  -0.263   3.113 -0.0745  0.0504  0.2044
   72POPC   C1A  857   6.357   0.176   3.016  0.2596 -0.2903  0.2407
   72POPC   D2A  858   6.117   0.488   3.115 -0.0526  0.1418 -0.0186
   72POPC   C3A  859   6.318   0.618   3.545 -0.1721  0.0204  0.0295
   72POPC   C4A  860   6.245   0.614   4.059 -0.1040  0.0287 -0.2476
   72POPC   C1B  861   6.221   0.014   3.475 -0.0712 -0.0208 -0.0035
   72POPC   C2B  862   6.380   0.163   3.888  0.0863 -0.0518  0.0939
   72POPC   C3B  863   6.545   0.209   4.313  0.2630 -0.4056  0.1113
   72POPC   C4B  864   6.614   0.227   4.811  0.1135 -0.3514 -0.1008
   73POPC   NC3  865   1.807   2.063   2.214 -0.1406  0.4484  0.0780
   73POPC   PO4  866   1.980   1.716   2.360  0.0256  0.1697  0.1263
   73POPC   GL1  867   1.986   1.629   2.752  0.0605 -0.0297  0.3111
   73POPC   GL2  868   2.079   1.367   2.753  0.0713 -0.0163 -0.0261
   73POPC   C1A  869   1.806   1.656   3.137  0.2517  0.0833  0.0375
   73POPC   D2A  870   2.010   1.566   3.537  0.4297  0.1121 -0.0436
   73POPC   C3A  871   2.221   1.925   3.796 -0.0842  0.0743  0.1001
   73POPC   C4A  872   2.537   2.103   4.077 -0.1423 -0.0468  0.0316
   73POPC   C1B  873   2.276   1.457   3.130  0.1918 -0.0989 -0.1026
   73POPC   C2B  874   2.560   1.698   3.408  0.2114 -0.0904  0.1506
   73POPC   C3B  875   2.793   1.755   3.808 -0.0892 -0.1871  0.0526
   73POPC   C4B  876   3.022   1.904   4.136 -0.0970  0.1689 -0.2076
   74POPC   NC3  877   2.825   2.817   2.332  0.1171 -0.7507  0.1844
   74POPC   PO4  878   3.169   2.679   2.419  0.2558  0.0660 -0.0042
   74POPC   GL1  879   2.961   2.703   2.811  0.3439 -0.0085 -0.2232
   74POPC   GL2  880   3.215   2.749   2.976 -0.0602 -0.0296 -0.3652
   74POPC   C1A  881   2.691   2.514   3.188 -0.0573 -0.0739  0.0516
   74POPC   D2A  882   2.645   2.278   3.624  0.1444 -0.1648 -0.2448
   74POPC   C3A  883   2.987   2.364   3.958 -0.0065  0.1864  0.1250
   74POPC   C4A  884   3.335   2.717   4.014 -0.0563 -0.1864  0.1618
   74POPC   C1B  885   3.219   2.264   3.111  0.0791 -0.0692  0.2960
   74POPC   C2B  886   3.127   2.075   3.542 -0.1621  0.1031  0.2957
   74POPC   C3B  887   3.380   1.829   3.835 -0.0331 -0.1840 -0.0911
   74POPC   C4B  888   3.505   1.638   4.187 -0.3109  0.0123  0.2152
   75POPC   NC3  889   0.562   4.203   2.429  0.0518 -0.0610  0.0273
   75POPC   PO4  890   0.637   3.811   2.602  0.1122 -0.2681  0.1545
   75POPC   GL1  891   0.516   4.000   2.858  0.2093 -0.1292 -0.6259
   75POPC   GL2  892   0.239   3.793   2.911  0.0481 -0.0530  0.2329
   75POPC   C1A  893   0.522   3.801   3.325  0.1555 -0.0190 -0.0110
   75POPC   D2A  894   0.654   3.688   3.723  0.0543 -0.1436 -0.0651
   75POPC   C3A  895   0.735   3.365   4.051  0.1150 -0.0787  0.1925
   75POPC   C4A  896   0.534   3.393   4.463  0.0456  0.1853 -0.3069
   75POPC   C1B  897   0.328   3.384   3.141 -0.0978  0.4175  0.0050
   75POPC   C2B  898   0.365   3.250   3.576 -0.4143  0.1877  0.3971
   75POPC   C3B  899   0.263   3.470   3.974  0.3838 -0.0491  0.0429
   75POPC   C4B  900   0.021   3.856   4.197 -0.0930  0.0206  0.0562
   76POPC   NC3  901   4.191   5.952   2.839 -0.1728  0.3517 -0.3681
   76POPC   PO4  902   3.818   6.029   2.770  0.0435  0.2893 -0.1993
   76POPC   GL1  903   3.777   5.950   3.094  0.0180 -0.1621 -0.3557
   76POPC   GL2  904   3.805   5.688   3.171 -0.2040  0.1321  0.0205
   76POPC   C1A  905   3.513   6.009   3.487 -0.1136  0.0886 -0.1671
   76POPC   D2A  906   3.235   6.045   3.888 -0.1470 -0.1795 -0.0438
   76POPC   C3A  907   3.030   6.368   4.126 -0.0039  0.0841 -0.0375
   76POPC   C4A  908   2.971   6.662   4.496  0.1005  0.2913  0.0016
   76POPC   C1B  909   3.890   5.607   3.605 -0.0874 -0.1317 -0.0745
   76POPC   C2B  910   4.131   5.544   4.040 -0.3798  0.0394  0.0070
   76POPC   C3B  911   4.389   5.398   4.429  0.0118 -0.3015  0.0250
   76POPC   C4B  912   4.761   5.139   4.634  0.3595 -0.0218 -0.0295
   77POPC   NC3  913   2.482   4.299   2.352  0.1080 -0.0953  0.1793
   77POPC   PO4  914   2.239   4.008   2.375  0.0660 -0.3711 -0.0135
   77POPC   GL1  915   2.319   3.933   2.831  0.1002  0.0533 -0.0496
   77POPC   GL2  916   2.670   3.872   2.818 -0.3434  0.4063 -0.1827
   77POPC   C1A  917   2.007   3.968   3.210 -0.0242  0.2976 -0.2734
   77POPC   D2A  918   1.558   3.859   3.367 -0.0006 -0.1277 -0.0188
   77POPC   C3A  919   1.490   3.905   3.813 -0.2134 -0.0755 -0.0304
   77POPC   C4A  920   1.797   4.103   4.149  0.0631  0.3241  0.2408
   77POPC   C1B  921   2.900   3.691   3.227 -0.0907 -0.2333  0.1617
   77POPC   C2B  922   3.197   3.472   3.480 -0.0358  0.1935 -0.2230
   77POPC   C3B  923   3.410   3.056   3.630  0.0963 -0.2589 -0.0250
   77POPC   C4B  924   3.230   2.655   3.530  0.1184  0.0260  0.0126
   78POPC   NC3  925   5.909   4.158   2.930  0.2253  0.0088  0.0513
   78POPC   PO4  926   5.848   4.431   2.662 -0.1054  0.5408 -0.0146
   78POPC   GL1  927   5.897   4.602   2.928  0.0764  0.2075  0.1813
   78POPC   GL2  928   5.813   4.911   2.953  0.0952  0.2563 -0.2845
   78POPC   C1A  929   6.071   4.446   3.327 -0.2178 -0.1533 -0.1274
   78POPC   D2A  930   5.908   4.415   3.754 -0.2539 -0.3174  0.1316
   78POPC   C3A  931   5.635   4.703   4.026  0.2569 -0.1579 -0.1721
   78POPC   C4A  932   5.620   4.745   4.462 -0.0943 -0.1068 -0.0552
   78POPC   C1B  933   5.916   4.918   3.410  0.2336 -0.1718  0.2719
   78POPC   C2B  934   6.025   4.889   3.872 -0.1139  0.2039  0.1939
   78POPC   C3B  935   6.054   5.039   4.279  0.0517  0.1875 -0.0196
   78POPC   C4B  936   6.387   4.932   4.603  0.0421  0.0707  0.0298
   79POPC   NC3  937   3.956   4.506   2.467  0.1025 -0.3871 -0.1224
   79POPC   PO4  938   4.177   4.719   2.693 -0.4048  0.3704 -0.0199
   79POPC   GL1  939   3.996   4.589   2.977  0.5178  0.1359 -0.2586
   79POPC   GL2  940   4.241   4.482   3.170  0.0381 -0.1500  0.1546
   79POPC   C1A  941   3.844   4.577   3.382 -0.1547 -0.1641 -0.1019
   79POPC   D2A  942   3.636   4.279   3.615  0.3815  0.1045  0.1098
   79POPC   C3A  943   3.614   4.297   4.072  0.1450 -0.0635  0.3876
   79POPC   C4A  944   3.411   4.211   4.445 -0.1969  0.3208 -0.2058
   79POPC   C1B  945   4.245   4.847   3.444 -0.1865 -0.0391  0.3560
   79POPC   C2B  946   4.467   4.877   3.862  0.3603 -0.0628 -0.2019
   79POPC   C3B  947   4.252   4.950   4.264  0.1775  0.2282  0.1441
   79POPC   C4B  948   4.036   4.841   4.689 -0.2625 -0.3229  0.1156
   80POPC   NC3  949   4.410   2.200   2.135 -0.1276 -0.1130  0.0451
   80POPC   PO4  950   4.402   1.893   2.333 -0.1396 -0.0425 -0.2257
   80POPC   GL1  951   4.505   1.860   2.708  0.3363  0.0742 -0.0308
   80POPC   GL2  952   4.260   1.856   2.807 -0.3111  0.1084 -0.1146
   80POPC   C1A  953   4.561   1.893   3.175  0.3835 -0.1253 -0.1673
   80POPC   D2A  954   4.688   1.858   3.635 -0.2498 -0.1693  0.2387
   80POPC   C3A  955   4.815   2.086   3.964 -0.0285 -0.2309  0.0017
   80POPC   C4A  956   4.623   2.399   4.194  0.2532 -0.1275 -0.0739
   80POPC   C1B  957   4.076   1.908   3.237 -0.0382  0.0196 -0.1091
   80POPC   C2B  958   3.892   1.975   3.663  0.2434  0.0932  0.1325
   80POPC   C3B  959   3.883   1.919   4.086 -0.2589  0.0595 -0.0810
   80POPC   C4B  960   3.927   1.665   4.501 -0.0475  0.0128  0.0982
   81POPC   NC3  961   6.387   4.431   2.856 -0.1893  0.1903  0.1027
   81POPC   PO4  962   6.580   4.188   2.632 -0.0027 -0.0324  0.2536
   81POPC   GL1  963   6.325   3.924   2.852 -0.2482 -0.0596 -0.2215
   81POPC   GL2  964   6.403   4.021   3.180 -0.2330 -0.2487  0.1044
   81POPC   C1A  965   6.374   3.494   2.902 -0.3106  0.3772  0.1395
   81POPC   D2A  966   6.374   3.392   3.304 -0.1090 -0.0610 -0.0262
   81POPC   C3A  967   6.551   3.669   3.545 -0.1358 -0.0748  0.2024
   81POPC   C4A  968   6.809   4.016   3.736 -0.2210  0.2209  0.0321
   81POPC   C1B  969   6.711   4.361   3.322 -0.3059  0.1283  0.1163
   81POPC   C2B  970   6.837   4.532   3.709 -0.0865  0.3559 -0.2710
   81POPC   C3B  971   7.035   4.302   4.025 -0.1470  0.3238  0.0214
   81POPC   C4B  972   7.008   3.876   4.208 -0.1577  0.0095  0.0853
   82POPC   NC3  973   6.420   2.691   2.435  0.0365 -0.0447  0.2228
   82POPC   PO4  974   6.560   2.969   2.214  0.0096  0.0599 -0.2064
   82POPC   GL1  975   6.465   3.125   2.602 -0.0096  0.1357 -0.2804
   82POPC   GL2  976   6.696   3.064   2.801  0.0576  0.3469  0.1177
   82POPC   C1A  977   6.207   2.911   2.956 -0.1238  0.1236 -0.2139
   82POPC   D2A  978   6.365   2.808   3.407 -0.1468  0.0337  0.1128
   82POPC   C3A  979   6.076   2.809   3.747  0.0374 -0.0167 -0.4303
   82POPC   C4A  980   6.112   3.065   4.182  0.0232 -0.1171 -0.1672
   82POPC   C1B  981   6.862   2.889   3.239  0.0305  0.3018  0.0886
   82POPC   C2B  982   6.943   2.687   3.641  0.1371  0.0977  0.0790
   82POPC   C3B  983   7.162   2.455   3.991  0.2136  0.1002  0.0585
   82POPC   C4B  984   7.413   2.272   4.358 -0.1483 -0.0503  0.0305
   83POPC   NC3  985   3.541   0.974   2.545 -0.2903 -0.2300 -0.1465
   83POPC   PO4  986   3.158   1.037   2.579 -0.0142 -0.1819  0.1132
   83POPC   GL1  987   3.351   0.709   2.898 -0.0659 -0.1680  0.1750
   83POPC   GL2  988   3.571   0.775   3.087 -0.0039 -0.0237 -0.0490
   83POPC   C1A  989   3.098   0.528   3.225  0.2142  0.1481 -0.1860
   83POPC   D2A  990   2.814   0.173   3.353  0.1725 -0.0035 -0.2530
   83POPC   C3A  991   2.736  -0.246   3.574 -0.2105 -0.1178  0.1827
   83POPC   C4A  992   2.721  -0.498   3.958  0.3053 -0.1718  0.1958
   83POPC   C1B  993   3.919   0.668   3.432  0.1964  0.1725 -0.1737
   83POPC   C2B  994   4.058   0.344   3.712  0.1373 -0.1234  0.0075
   83POPC   C3B  995   4.178  -0.012   4.028  0.1165 -0.1628 -0.0107
   83POPC   C4B  996   4.029  -0.146   4.438  0.0475  0.0824  0.0450
   84POPC   NC3  997   2.474   3.512   2.546  0.1251 -0.0082 -0.0530
   84POPC   PO4  998   2.849   3.411   2.621  0.0337 -0.1161 -0.0349
   84POPC   GL1  999   2.748   3.328   3.006  0.0628  0.0775  0.3585
   84POPC   GL2 1000   2.649   2.998   2.999  0.3167 -0.0877 -0.1070
   84POPC   C1A 1001   2.410   3.517   3.219  0.0656 -0.0509  0.2074
   84POPC   D2A 1002   2.334   3.809   3.576 -0.1144  0.0507 -0.0726
   84POPC   C3A 1003   1.974   4.049   3.719 -0.3248  0.0756  0.1137
   84POPC   C4A 1004   1.861   4.510   3.756 -0.0075 -0.1701  0.2037
   84POPC   C1B 1005   2.899   3.001   3.339  0.0851 -0.1125 -0.2470
   84POPC   C2B 1006   2.979   3.079   3.828 -0.3543 -0.0489 -0.1087
   84POPC   C3B 1007   3.303   3.431   4.019  0.0473  0.0639 -0.1160
   84POPC   C4B 1008   3.417   3.881   3.949 -0.0281 -0.0317 -0.0298
   85POPC   NC3 1009   1.011   3.878   2.219 -0.1155 -0.1233  0.3173
   85POPC   PO4 1010   1.193   3.627   2.476 -0.1433 -0.2064  0.4238
   85POPC   GL1 1011   1.163   3.549   2.880  0.0719  0.1617  0.0851
   85POPC   GL2 1012   0.978   3.681   3.026  0.2452 -0.0094 -0.0023
   85POPC   C1A 1013   1.168   3.136   3.064 -0.1079  0.0817  0.0929
   85POPC   D2A 1014   1.207   2.710   3.291  0.0427  0.0698  0.0052
   85POPC   C3A 1015   1.351   2.809   3.707 -0.3216 -0.0694  0.1912
   85POPC   C4A 1016   1.633   2.990   4.044  0.0390  0.0359 -0.0420
   85POPC   C1B 1017   0.818   3.347   3.370 -0.3115 -0.0121  0.0931
   85POPC   C2B 1018   0.850   2.993   3.671  0.0349  0.2408 -0.0648
   85POPC   C3B 1019   0.966   2.859   4.107  0.0196 -0.2574  0.1167
   85POPC   C4B 1020   0.617   2.889   4.454 -0.0527  0.4645  0.0497
   86POPC   NC3 1021   0.290   1.471   2.288  0.1247 -0.3656  0.2433
   86POPC   PO4 1022   0.045   1.783   2.250  0.1710 -0.2198  0.0882
   86POPC   GL1 1023   0.159   1.676   2.664  0.3153 -0.2253  0.1993
   86POPC   GL2 1024   0.231   1.913   2.762 -0.0906 -0.1230  0.1102
   86POPC   C1A 1025  -0.102   1.531   3.005  0.4057 -0.2622 -0.0856
   86POPC   D2A 1026  -0.543   1.544   3.211 -0.1851 -0.3413  0.0716
   86POPC   C3A 1027  -0.667   1.254   3.564  0.0862 -0.1865 -0.2075
   86POPC   C4A 1028  -0.732   0.988   3.949 -0.0621  0.0290  0.1480
   86POPC   C1B 1029   0.137   2.055   3.222 -0.2205  0.2209  0.4668
   86POPC   C2B 1030   0.098   2.353   3.523 -0.0878  0.0385 -0.0930
   86POPC   C3B 1031   0.012   2.583   3.913 -0.0308 -0.1564 -0.0593
   86POPC   C4B 1032   0.275   2.510   4.284 -0.0683  0.3870 -0.0590
   87POPC   NC3 1033   5.744   5.419   2.822 -0.3386 -0.0013 -0.0749
   87POPC   PO4 1034   5.508   5.140   2.673 -0.1755 -0.3556  0.2232
   87POPC   GL1 1035   5.410   5.172   3.069 -0.2111  0.2078  0.2851
   87POPC   GL2 1036   5.321   4.959   3.304  0.0294 -0.0434 -0.2291
   87POPC   C1A 1037   5.235   5.466   3.418  0.1352 -0.1386  0.1278
   87POPC   D2A 1038   5.032   5.478   3.823 -0.1771  0.1678 -0.0320
   87POPC   C3A 1039   4.702   5.732   4.028  0.0195 -0.1290 -0.0081
   87POPC   C4A 1040   4.383   6.058   4.153 -0.0860 -0.0338  0.0780
   87POPC   C1B 1041   5.517   5.152   3.675 -0.2195  0.3877  0.1359
   87POPC   C2B 1042   5.586   5.182   4.107 -0.1132  0.0859 -0.2605
   87POPC   C3B 1043   5.707   5.242   4.523 -0.0355  0.1436 -0.1021
   87POPC   C4B 1044   5.848   5.477   4.914  0.2315  0.1044 -0.2433
   88POPC   NC3 1045   1.177   0.083   2.362 -0.2083  0.0529 -0.2065
   88POPC   PO4 1046   1.126  -0.123   2.631 -0.2838 -0.2197 -0.1880
   88POPC   GL1 1047   1.332   0.127   2.957 -0.0114  0.0512 -0.0614
   88POPC   GL2 1048   1.280  -0.045   3.207 -0.1969  0.0622 -0.2127
   88POPC   C1A 1049   1.567   0.335   3.303 -0.1639  0.2730 -0.2550
   88POPC   D2A 1050   1.498   0.564   3.721 -0.1591  0.2555  0.0733
   88POPC   C3A 1051   1.645   0.880   4.023  0.0379 -0.0958  0.0212
   88POPC   C4A 1052   1.451   1.331   4.075 -0.1564 -0.0344  0.0404
   88POPC   C1B 1053   1.285  -0.068   3.678  0.1447  0.2679  0.0887
   88POPC   C2B 1054   1.492  -0.178   4.081  0.0717 -0.0755  0.0513
   88POPC   C3B 1055   1.705  -0.374   4.465 -0.0244  0.0863  0.3906
   88POPC   C4B 1056   1.818  -0.610   4.828  0.0824 -0.2093  0.1765
   89POPC   NC3 1057   2.485   5.974   2.443  0.0929  0.1367 -0.1125
   89POPC   PO4 1058   2.521   5.610   2.439 -0.0836 -0.0511 -0.1398
   89POPC   GL1 1059   2.555   5.346   2.767  0.0508  0.2038 -0.1265
   89POPC   GL2 1060   2.366   5.079   2.926  0.1050 -0.0853  0.1211
   89POPC   C1A 1061   2.692   5.309   3.229 -0.6051  0.0066  0.0702
   89POPC   D2A 1062   2.710   5.089   3.647 -0.0051  0.0813 -0.1971
   89POPC   C3A 1063   2.800   4.676   3.901 -0.0704  0.0765  0.0289
   89POPC   C4A 1064   2.794   4.310   4.175 -0.0309  0.6142 -0.1094
   89POPC   C1B 1065   2.279   5.053   3.325  0.1556  0.1099 -0.1770
   89POPC   C2B 1066   2.198   4.958   3.747  0.1367  0.1507  0.0605
   89POPC   C3B 1067   2.138   4.713   4.102 -0.0047 -0.0811  0.2210
   89POPC   C4B 1068   2.095   4.488   4.507  0.1238 -0.3601  0.1214
   90POPC   NC3 1069   2.865   0.771   2.869  0.2809  0.2702  0.1930
   90POPC   PO4 1070   2.783   0.470   2.616  0.0678 -0.3042  0.0617
   90POPC   GL1 1071   2.676   0.260   2.954  0.1819  0.1325  0.0635
   90POPC   GL2 1072   2.403   0.278   2.924  0.0885 -0.0102 -0.1787
   90POPC   C1A 1073   2.640  -0.249   2.927 -0.2448 -0.0213 -0.0240
   90POPC   D2A 1074   2.665  -0.654   3.031 -0.1527 -0.3212  0.1293
   90POPC   C3A 1075   2.569  -0.781   3.501 -0.2499  0.1163 -0.2195
   90POPC   C4A 1076   2.842  -0.978   3.799  0.1054 -0.6809 -0.1337
   90POPC   C1B 1077   2.321   0.185   3.337  0.0598  0.1977 -0.1443
   90POPC   C2B 1078   2.506   0.144   3.809 -0.1999  0.2413  0.4818
   90POPC   C3B 1079   2.601   0.343   4.182  0.0493 -0.1230  0.0846
   90POPC   C4B 1080   2.472   0.299   4.591 -0.2303 -0.3151 -0.0996
   91POPC   NC3 1081   4.794   0.641   2.429  0.2985 -0.0763  0.2257
   91POPC   PO4 1082   4.557   0.961   2.419 -0.0797  0.0674 -0.2699
   91POPC   GL1 1083   4.386   1.105   2.728  0.0536  0.1580  0.2017
   91POPC   GL2 1084   4.469   1.391   2.743  0.1218  0.0525  0.3810
   91POPC   C1A 1085   4.181   0.974   3.143  0.0281 -0.0143  0.0187
   91POPC   D2A 1086   4.207   1.025   3.597 -0.1120 -0.1731  0.1652
   91POPC   C3A 1087   4.381   1.399   3.842  0.3773 -0.2467 -0.2769
   91POPC   C4A 1088   4.604   1.647   4.170  0.2576 -0.0177 -0.4628
   91POPC   C1B 1089   4.799   1.509   3.009  0.1246  0.0330 -0.1363
   91POPC   C2B 1090   5.017   1.576   3.436 -0.1588  0.1672  0.2658
   91POPC   C3B 1091   5.003   1.545   3.880  0.1588  0.2696 -0.0850
   91POPC   C4B 1092   5.090   1.717   4.234 -0.1262  0.0073  0.1741
   92POPC   NC3 1093   3.058   5.418   2.646 -0.0001  0.3062  0.0935
   92POPC   PO4 1094   3.138   5.054   2.689 -0.0769  0.3198  0.1898
   92POPC   GL1 1095   3.241   5.033   3.077  0.2218  0.0191  0.2796
   92POPC   GL2 1096   3.405   5.302   3.083  0.1158 -0.0598 -0.0250
   92POPC   C1A 1097   3.215   5.043   3.537  0.2704 -0.0426  0.0206
   92POPC   D2A 1098   3.081   5.100   3.998 -0.0105  0.2565 -0.3161
   92POPC   C3A 1099   3.271   5.403   4.281  0.3289  0.2167 -0.1564
   92POPC   C4A 1100   3.553   5.561   4.589  0.1187  0.0589  0.0736
   92POPC   C1B 1101   3.668   5.197   3.430  0.1038  0.2786 -0.2887
   92POPC   C2B 1102   4.051   5.165   3.733  0.1375  0.0585  0.0596
   92POPC   C3B 1103   4.495   5.334   3.743 -0.1381  0.2418  0.3247
   92POPC   C4B 1104   4.729   5.219   4.077 -0.0865 -0.0963 -0.2113
   93POPC   NC3 1105   3.010   4.180   2.978 -0.2203 -0.2805  0.0566
   93POPC   PO4 1106   2.854   4.342   2.629 -0.2315  0.0908 -0.3168
   93POPC   GL1 1107   2.856   4.644   2.993 -0.1056  0.1052  0.1812
   93POPC   GL2 1108   2.658   4.766   3.201  0.1529 -0.1821 -0.3812
   93POPC   C1A 1109   3.171   4.592   3.357  0.1436  0.0835  0.0652
   93POPC   D2A 1110   3.446   4.691   3.735 -0.0643  0.0471 -0.1633
   93POPC   C3A 1111   3.575   5.031   3.960  0.1881  0.0009 -0.2032
   93POPC   C4A 1112   3.814   5.175   4.311  0.2046 -0.1390  0.0834
   93POPC   C1B 1113   2.451   4.591   3.527 -0.0009  0.0069 -0.1017
   93POPC   C2B 1114   2.401   4.243   3.859 -0.0405  0.0716  0.2567
   93POPC   C3B 1115   2.246   4.104   4.283 -0.0478  0.0235 -0.0032
   93POPC   C4B 1116   1.986   3.837   4.540 -0.1416  0.0679  0.0283
   94POPC   NC3 1117   3.975   2.168   2.442  0.5203 -0.1085  0.1634
   94POPC   PO4 1118   4.014   2.503   2.583  0.0928  0.2762  0.1507
   94POPC   GL1 1119   4.139   2.327   2.848 -0.2164 -0.0102 -0.1906
   94POPC   GL2 1120   3.946   2.356   3.099  0.0450  0.1925  0.1169
   94POPC   C1A 1121   4.405   2.402   3.225 -0.1064 -0.0289 -0.2841
   94POPC   D2A 1122   4.492   2.298   3.674 -0.0011 -0.3457 -0.0666
   94POPC   C3A 1123   4.306   1.996   3.884 -0.2535  0.0831 -0.3227
   94POPC   C4A 1124   4.292   2.074   4.344  0.2083  0.2780 -0.0288
   94POPC   C1B 1125   4.031   2.454   3.556  0.3127  0.1191 -0.1583
   94POPC   C2B 1126   4.049   2.406   4.042 -0.0893  0.1667  0.1349
   94POPC   C3B 1127   4.210   2.565   4.495 -0.4040 -0.0792  0.3137
   94POPC   C4B 1128   4.635   2.497   4.691 -0.2427  0.1886  0.1546
   95POPC   NC3 1129   2.269   5.169   2.401  0.2139 -0.2225 -0.2504
   95POPC   PO4 1130   2.140   4.791   2.482  0.2613 -0.0120  0.1081
   95POPC   GL1 1131   2.260   4.657   2.853  0.0491 -0.0109 -0.1941
   95POPC   GL2 1132   2.392   4.401   2.818  0.1346  0.0921  0.1360
   95POPC   C1A 1133   2.030   4.574   3.268  0.0654 -0.0852  0.4428
   95POPC   D2A 1134   1.608   4.347   3.302  0.0846  0.0764 -0.1546
   95POPC   C3A 1135   1.344   4.371   3.656 -0.0321  0.1527  0.1584
   95POPC   C4A 1136   1.229   4.412   4.133 -0.2005 -0.3496  0.1533
   95POPC   C1B 1137   2.462   4.220   3.197 -0.1666  0.0436 -0.2046
   95POPC   C2B 1138   2.753   4.072   3.563 -0.0309  0.0909  0.3249
   95POPC   C3B 1139   2.658   3.801   3.935 -0.1761  0.0169  0.0423
   95POPC   C4B 1140   2.273   3.646   4.118  0.0015 -0.1004 -0.1134
   96POPC   NC3 1141   2.465   1.572   2.466  0.3334 -0.2352 -0.1894
   96POPC   PO4 1142   2.714   1.892   2.455  0.2992  0.1147 -0.1199
   96POPC   GL1 1143   2.489   1.842   2.912 -0.4525  0.3082 -0.0734
   96POPC   GL2 1144   2.661   2.071   3.022  0.0041 -0.0503 -0.1279
   96POPC   C1A 1145   2.198   1.971   3.222  0.0603 -0.0374 -0.1234
   96POPC   D2A 1146   1.811   2.060   3.560  0.1977 -0.0741 -0.0043
   96POPC   C3A 1147   1.495   1.783   3.569  0.0589  0.0173  0.2572
   96POPC   C4A 1148   1.160   1.449   3.599 -0.4492  0.2804 -0.3776
   96POPC   C1B 1149   2.954   1.713   3.101 -0.2141  0.2016  0.1583
   96POPC   C2B 1150   3.192   1.549   3.476  0.1440 -0.0346  0.1217
   96POPC   C3B 1151   3.343   1.245   3.819 -0.1898  0.2513  0.4663
   96POPC   C4B 1152   3.328   1.088   4.260  0.2371 -0.0773  0.0639
   97POPC   NC3 1153   0.717   0.844   2.352 -0.0550  0.2692  0.2799
   97POPC   PO4 1154   0.682   1.217   2.414  0.2338 -0.3683  0.0406
   97POPC   GL1 1155   0.986   1.060   2.646 -0.1079  0.0370 -0.0834
   97POPC   GL2 1156   1.054   1.317   2.854  0.1690  0.3652 -0.1268
   97POPC   C1A 1157   1.096   0.763   3.000 -0.0998 -0.0389  0.2623
   97POPC   D2A 1158   1.106   0.471   3.351 -0.0050  0.1405 -0.2327
   97POPC   C3A 1159   0.793   0.178   3.473 -0.1381  0.0292  0.1093
   97POPC   C4A 1160   0.742  -0.134   3.799  0.1785  0.0923 -0.0022
   97POPC   C1B 1161   0.844   1.241   3.280  0.1002 -0.0091  0.2458
   97POPC   C2B 1162   0.691   1.293   3.704  0.0535 -0.3771  0.1915
   97POPC   C3B 1163   0.561   1.677   3.949  0.1291  0.0125  0.0654
   97POPC   C4B 1164   0.415   1.958   4.287 -0.3051  0.1773 -0.1713
   98POPC   NC3 1165   1.711   2.042   2.737  0.0354 -0.0928 -0.0046
   98POPC   PO4 1166   1.723   2.398   2.564 -0.1975 -0.0269 -0.1242
   98POPC   GL1 1167   1.879   2.584   2.893  0.1333  0.1675  0.0271
   98POPC   GL2 1168   1.926   2.372   3.131  0.1676  0.0368  0.0837
   98POPC   C1A 1169   2.161   2.851   3.169  0.2106  0.1704  0.0642
   98POPC   D2A 1170   2.430   3.013   3.430 -0.3965  0.1401 -0.0268
   98POPC   C3A 1171   2.613   2.734   3.703  0.0048 -0.1806  0.1232
   98POPC   C4A 1172   2.631   2.808   4.140 -0.2641  0.1056  0.0547
   98POPC   C1B 1173   2.174   2.374   3.536  0.3280  0.1262  0.1793
   98POPC   C2B 1174   2.185   2.525   3.949 -0.4656 -0.5258 -0.2354
   98POPC   C3B 1175   2.201   2.810   4.348  0.2804 -0.2885  0.1697
   98POPC   C4B 1176   2.068   3.234   4.500 -0.1174 -0.0151  0.0140
   99POPC   NC3 1177   1.361   1.240   2.391 -0.1664  0.4979  0.2012
   99POPC   PO4 1178   1.457   0.882   2.307 -0.0723  0.1598 -0.0310
   99POPC   GL1 1179   1.531   0.892   2.676  0.1043 -0.1109 -0.0202
   99POPC   GL2 1180   1.842   0.900   2.796 -0.3663  0.2812  0.0236
   99POPC   C1A 1181   1.578   0.795   3.160 -0.1644  0.2737 -0.1855
   99POPC   D2A 1182   1.908   0.731   3.499 -0.1440 -0.0936  0.3001
   99POPC   C3A 1183   2.125   0.663   3.902  0.2453  0.1123 -0.0497
   99POPC   C4A 1184   2.087   0.482   4.305  0.1227 -0.2640 -0.2034
   99POPC   C1B 1185   1.915   1.157   3.168  0.2840 -0.2660 -0.0816
   99POPC   C2B 1186   2.234   1.120   3.484 -0.0672 -0.1425  0.2709
   99POPC   C3B 1187   2.383   1.421   3.829  0.0437  0.0644  0.0589
   99POPC   C4B 1188   2.490   1.595   4.241 -0.0909 -0.2200  0.0707
  100POPC   NC3 1189   4.988   5.769   2.533 -0.1276 -0.0656 -0.1111
  100POPC   PO4 1190   4.639   5.809   2.708 -0.0298 -0.0821 -0.0190
  100POPC   GL1 1191   4.562   5.498   2.975 -0.2591  0.0680  0.0630
  100POPC   GL2 1192   4.382   5.576   3.194 -0.3853  0.1948 -0.2240
  100POPC   C1A 1193   4.755   5.263   3.327  0.1049  0.1568  0.1289
  100POPC   D2A 1194   4.856   4.911   3.617  0.1138  0.1908 -0.0427
  100POPC   C3A 1195   5.144   5.023   3.942 -0.2809 -0.0472  0.0286
  100POPC   C4A 1196   5.041   4.885   4.371 -0.0279  0.0062  0.3052
  100POPC   C1B 1197   4.585   5.758   3.545  0.0453 -0.1896 -0.0042
  100POPC   C2B 1198   4.701   6.175   3.785 -0.2564 -0.1002  0.0112
  100POPC   C3B 1199   5.020   6.252   4.105  0.0863 -0.1106  0.2851
  100POPC   C4B 1200   5.143   6.286   4.539 -0.1620 -0.3535  0.0151
  101POPC   NC3 1201   1.322   2.647   2.758  0.2406  0.3648 -0.2163
  101POPC   PO4 1202   1.260   2.260   2.593  0.0285  0.0553 -0.0332
  101POPC   GL1 1203   1.164   2.107   3.029 -0.1411  0.2933  0.2912
  101POPC   GL2 1204   1.295   2.222   3.195 -0.0195  0.1816 -0.3199
  101POPC   C1A 1205   1.133   1.645   3.185  0.1343  0.0473 -0.2401
  101POPC   D2A 1206   1.374   1.254   3.240 -0.1875  0.1566 -0.1153
  101POPC   C3A 1207   1.648   1.134   3.616  0.4293  0.2012 -0.0340
  101POPC   C4A 1208   1.949   1.259   3.944 -0.0155 -0.0835  0.1545
  101POPC   C1B 1209   1.551   2.456   3.480 -0.1906  0.1992  0.1491
  101POPC   C2B 1210   1.897   2.793   3.639 -0.2333  0.0256 -0.2342
  101POPC   C3B 1211   2.209   3.067   3.885 -0.1804 -0.1367 -0.1896
  101POPC   C4B 1212   2.527   3.350   3.770  0.0095  0.0613  0.0666
  102POPC   NC3 1213   4.899   3.025   1.935 -0.0755  0.3693  0.0557
  102POPC   PO4 1214   5.173   3.189   2.156 -0.3373  0.1639 -0.1480
  102POPC   GL1 1215   5.423   3.024   2.467 -0.0918  0.2648 -0.1333
  102POPC   GL2 1216   5.398   2.725   2.515  0.3862  0.0984  0.0145
  102POPC   C1A 1217   5.586   2.933   2.907  0.3363  0.0493 -0.1552
  102POPC   D2A 1218   5.871   2.818   3.297  0.2173 -0.1888  0.1898
  102POPC   C3A 1219   6.002   3.210   3.493 -0.0569 -0.0269  0.3485
  102POPC   C4A 1220   6.279   3.380   3.804 -0.4031 -0.1208 -0.1505
  102POPC   C1B 1221   5.184   2.619   2.919  0.0186 -0.0218 -0.2186
  102POPC   C2B 1222   5.177   2.918   3.302 -0.1149  0.1730 -0.2732
  102POPC   C3B 1223   4.951   3.084   3.710 -0.1041 -0.0330  0.0554
  102POPC   C4B 1224   4.758   3.306   4.036 -0.0582 -0.3247  0.1268
  103POPC   NC3 1225   4.029   0.398   2.965  0.3428 -0.2407 -0.0709
  103POPC   PO4 1226   3.968  -0.008   2.840 -0.0600 -0.0566  0.0128
  103POPC   GL1 1227   4.060  -0.184   3.186 -0.2637 -0.1412  0.2739
  103POPC   GL2 1228   4.200   0.067   3.301 -0.0238 -0.2292  0.2759
  103POPC   C1A 1229   3.802  -0.046   3.561 -0.1802  0.0343  0.1254
  103POPC   D2A 1230   3.600   0.006   3.942 -0.1062 -0.2580 -0.2079
  103POPC   C3A 1231   3.390   0.342   4.171 -0.0133 -0.0955 -0.0268
  103POPC   C4A 1232   3.469   0.672   4.470  0.4945 -0.0822 -0.0606
  103POPC   C1B 1233   4.569   0.105   3.646 -0.2541  0.0774  0.0593
  103POPC   C2B 1234   4.642   0.119   4.085  0.0541  0.2573  0.0845
  103POPC   C3B 1235   4.587  -0.121   4.448  0.0894  0.1771 -0.2549
  103POPC   C4B 1236   4.397  -0.449   4.739 -0.2632 -0.0621  0.1485
  104POPC   NC3 1237   5.961   0.975   1.982  0.0443 -0.2464  0.3904
  104POPC   PO4 1238   6.112   0.711   2.234  0.2665  0.0780  0.2045
  104POPC   GL1 1239   6.058   1.056   2.443  0.1357 -0.1167  0.2748
  104POPC   GL2 1240   6.091   0.956   2.762 -0.2212 -0.0873  0.1818
  104POPC   C1A 1241   5.847   1.417   2.711 -0.2152 -0.0034 -0.1050
  104POPC   D2A 1242   5.806   1.876   2.802 -0.2046  0.0096  0.3007
  104POPC   C3A 1243   6.195   2.019   2.971  0.1056  0.1430 -0.0158
  104POPC   C4A 1244   6.356   2.459   3.011 -0.2185 -0.1265 -0.1626
  104POPC   C1B 1245   6.240   0.989   3.174 -0.1435 -0.0147 -0.0086
  104POPC   C2B 1246   6.388   1.228   3.544  0.1538  0.0033  0.0373
  104POPC   C3B 1247   6.157   1.428   3.919 -0.0368 -0.2664 -0.0985
  104POPC   C4B 1248   5.759   1.601   4.028 -0.0561  0.0552  0.1546
  105POPC   NC3 1249   6.044   2.214   1.590 -0.0868 -0.1069  0.0532
  105POPC   PO4 1250   5.843   2.537   1.637 -0.0353 -0.0799 -0.0229
  105POPC   GL1 1251   5.800   2.336   2.059 -0.1918 -0.1753  0.2918
  105POPC   GL2 1252   5.584   2.297   2.204  0.3061 -0.1070 -0.1034
  105POPC   C1A 1253   5.930   2.354   2.552 -0.3900  0.1611  0.0263
  105POPC   D2A 1254   5.837   2.426   2.986 -0.0457 -0.0537 -0.1398
  105POPC   C3A 1255   6.042   2.310   3.392 -0.0635  0.1012  0.2270
  105POPC   C4A 1256   6.119   2.325   3.851  0.1870  0.2540 -0.2951
  105POPC   C1B 1257   5.455   2.251   2.632  0.1235 -0.1112  0.0017
  105POPC   C2B 1258   5.401   2.171   3.095  0.3732  0.0651  0.0985
  105POPC   C3B 1259   5.415   2.509   3.404  0.1226 -0.2295  0.3455
  105POPC   C4B 1260   5.589   2.430   3.868  0.0458  0.6491  0.0796
  106POPC   NC3 1261   0.738   2.204   2.809 -0.1991 -0.1421 -0.2849
  106POPC   PO4 1262   0.815   2.553   2.945 -0.1770  0.0003 -0.2244
  106POPC   GL1 1263   0.631   2.402   3.339  0.3906 -0.1693  0.0760
  106POPC   GL2 1264   0.877   2.409   3.511 -0.2881  0.0970 -0.2408
  106POPC   C1A 1265   0.465   2.103   3.664  0.0701 -0.2176 -0.2796
  106POPC   D2A 1266   0.071   2.080   3.933 -0.1342  0.5395 -0.0047
  106POPC   C3A 1267  -0.031   2.085   4.413 -0.0200 -0.0303 -0.0115
  106POPC   C4A 1268  -0.227   2.118   4.846 -0.0412  0.2244 -0.0010
  106POPC   C1B 1269   1.222   2.329   3.774  0.0739 -0.0913  0.1486
  106POPC   C2B 1270   1.588   2.176   4.005  0.3433  0.2449  0.0197
  106POPC   C3B 1271   1.689   1.754   4.051 -0.0250  0.0518 -0.3098
  106POPC   C4B 1272   1.868   1.440   4.451  0.0288  0.3297  0.1437
  107POPC   NC3 1273   5.919   3.395   3.002  0.1028 -0.1924 -0.3005
  107POPC   PO4 1274   5.695   3.694   2.872 -0.2072 -0.1375  0.1366
  107POPC   GL1 1275   5.708   3.695   3.249  0.1251 -0.0887  0.0311
  107POPC   GL2 1276   5.965   3.755   3.371  0.0406 -0.3251  0.1671
  107POPC   C1A 1277   5.649   3.523   3.698  0.0006  0.2030  0.1561
  107POPC   D2A 1278   5.595   3.682   4.125  0.1426 -0.0899  0.1054
  107POPC   C3A 1279   5.876   3.457   4.337  0.2817  0.0518 -0.1270
  107POPC   C4A 1280   6.081   3.569   4.804  0.1030  0.2811  0.2229
  107POPC   C1B 1281   6.225   4.069   3.652 -0.3169 -0.1096  0.0198
  107POPC   C2B 1282   6.384   4.299   3.984 -0.0948  0.0121 -0.3196
  107POPC   C3B 1283   6.651   4.377   4.353 -0.2486  0.2260 -0.1495
  107POPC   C4B 1284   6.864   4.672   4.653  0.0959  0.0436  0.0485
  108POPC   NC3 1285   4.955   1.334   2.030  0.0587  0.1211 -0.0443
  108POPC   PO4 1286   5.065   0.937   2.149 -0.2912 -0.1753 -0.1069
  108POPC   GL1 1287   5.048   1.025   2.541 -0.2418 -0.0011 -0.2412
  108POPC   GL2 1288   4.938   1.193   2.688 -0.1102 -0.0794  0.2671
  108POPC   C1A 1289   5.449   1.036   2.779 -0.0927 -0.2093  0.0683
  108POPC   D2A 1290   5.769   1.041   3.102  0.1552 -0.0193 -0.0526
  108POPC   C3A 1291   5.835   0.741   3.450 -0.0633 -0.0472 -0.0679
  108POPC   C4A 1292   5.825   0.495   3.861 -0.1751 -0.0393 -0.2417
  108POPC   C1B 1293   4.938   0.862   3.028  0.0796 -0.0681 -0.0111
  108POPC   C2B 1294   4.925   0.676   3.447 -0.0386  0.0540 -0.0775
  108POPC   C3B 1295   4.916   0.434   3.816  0.3197 -0.2278  0.1959
  108POPC   C4B 1296   5.066   0.237   4.177 -0.0559  0.1828  0.0468
  109POPC   NC3 1297   4.141   3.030   2.362 -0.1716  0.2408  0.0123
  109POPC   PO4 1298   4.331   3.363   2.385 -0.2646 -0.4422  0.1882
  109POPC   GL1 1299   4.468   3.483   2.840 -0.0074  0.2516 -0.1350
  109POPC   GL2 1300   4.478   3.770   2.912  0.0441 -0.0681 -0.1545
  109POPC   C1A 1301   4.217   3.440   3.210  0.1882 -0.1669 -0.1840
  109POPC   D2A 1302   3.946   3.244   3.496 -0.1360  0.4599 -0.1421
  109POPC   C3A 1303   3.748   3.391   3.867  0.0412 -0.0142 -0.1930
  109POPC   C4A 1304   3.692   3.583   4.271 -0.0886  0.2191  0.0368
  109POPC   C1B 1305   4.577   3.922   3.376  0.0952 -0.0185  0.3031
  109POPC   C2B 1306   4.589   3.860   3.837 -0.2587  0.0041  0.2756
  109POPC   C3B 1307   4.601   4.182   4.177  0.1168  0.2946  0.0198
  109POPC   C4B 1308   4.695   4.553   4.446 -0.0381  0.1796 -0.1269
  110POPC   NC3 1309   0.291   0.219   2.657  0.1947  0.0928 -0.3152
  110POPC   PO4 1310   0.296   0.589   2.548  0.0987  0.0942  0.1992
  110POPC   GL1 1311   0.276   0.686   2.928  0.2938  0.0242 -0.2953
  110POPC   GL2 1312   0.118   0.570   3.183 -0.1718 -0.1741 -0.0842
  110POPC   C1A 1313   0.622   0.674   3.275  0.0622 -0.0716  0.0194
  110POPC   D2A 1314   0.754   0.744   3.748  0.2003 -0.1922  0.2752
  110POPC   C3A 1315   0.940   0.394   3.952 -0.2624  0.0682  0.0731
  110POPC   C4A 1316   1.120   0.374   4.419  0.0129 -0.1308  0.2942
  110POPC   C1B 1317   0.235   0.817   3.597 -0.2847  0.3066 -0.3416
  110POPC   C2B 1318   0.292   0.716   4.028  0.1566  0.1132  0.0644
  110POPC   C3B 1319   0.075   0.714   4.445  0.1757 -0.3424  0.1311
  110POPC   C4B 1320   0.000   1.151   4.621  0.1919 -0.1831 -0.0610
  111POPC   NC3 1321   4.564   5.005   2.847  0.4906  0.1597 -0.1961
  111POPC   PO4 1322   4.664   4.613   2.826 -0.1288 -0.4425  0.1983
  111POPC   GL1 1323   4.957   4.548   3.112  0.1733 -0.1698  0.1061
  111POPC   GL2 1324   5.108   4.369   3.276  0.2084  0.1352  0.1969
  111POPC   C1A 1325   4.622   4.463   3.463  0.5820 -0.0148 -0.4819
  111POPC   D2A 1326   4.143   4.386   3.690  0.0467 -0.3005  0.0359
  111POPC   C3A 1327   3.908   4.703   3.891 -0.2494  0.3775  0.1452
  111POPC   C4A 1328   3.812   4.671   4.348  0.2043  0.1504 -0.1292
  111POPC   C1B 1329   4.950   4.169   3.647 -0.2715 -0.0461  0.1930
  111POPC   C2B 1330   5.041   3.962   4.038  0.1796 -0.0220 -0.5200
  111POPC   C3B 1331   4.943   4.034   4.501  0.2303  0.0513  0.1249
  111POPC   C4B 1332   4.834   4.132   4.910 -0.0043  0.0733  0.0288
  112POPC   NC3 1333   5.136   4.387   2.710  0.4643 -0.2974 -0.0776
  112POPC   PO4 1334   5.395   4.601   2.905  0.2136  0.2980 -0.1244
  112POPC   GL1 1335   5.614   4.395   3.176  0.1279 -0.1608 -0.2082
  112POPC   GL2 1336   5.588   4.553   3.418 -0.0180 -0.1951 -0.2028
  112POPC   C1A 1337   5.527   4.092   3.467  0.2005 -0.1768 -0.0298
  112POPC   D2A 1338   5.503   4.120   3.915 -0.2392  0.1914 -0.0854
  112POPC   C3A 1339   5.732   4.289   4.273 -0.2659 -0.0524 -0.0832
  112POPC   C4A 1340   6.146   4.400   4.446 -0.3002 -0.0643  0.1797
  112POPC   C1B 1341   5.273   4.624   3.676  0.0119  0.0142 -0.5027
  112POPC   C2B 1342   5.096   4.516   4.070  0.0575 -0.2460  0.2403
  112POPC   C3B 1343   5.273   4.384   4.402 -0.2471  0.0962  0.0539
  112POPC   C4B 1344   5.311   4.296   4.833 -0.2298  0.2551 -0.0368
  113POPC   NC3 1345   1.057   5.647   2.447 -0.3504  0.0799  0.2519
  113POPC   PO4 1346   1.461   5.624   2.385 -0.0522  0.0257 -0.1108
  113POPC   GL1 1347   1.756   5.570   2.706  0.1534  0.1120 -0.0653
  113POPC   GL2 1348   1.870   5.305   2.793  0.0393 -0.2109 -0.0931
  113POPC   C1A 1349   1.749   5.718   3.140  0.1913 -0.2257  0.0492
  113POPC   D2A 1350   1.656   6.026   3.497 -0.0176  0.0601 -0.2780
  113POPC   C3A 1351   1.711   5.901   3.974  0.0783  0.0221  0.0738
  113POPC   C4A 1352   1.894   5.707   4.328 -0.0741 -0.0422  0.0471
  113POPC   C1B 1353   1.788   5.174   3.192 -0.0646  0.1190 -0.0296
  113POPC   C2B 1354   1.633   5.025   3.557 -0.2045 -0.0180 -0.3131
  113POPC   C3B 1355   1.467   4.821   3.878  0.1093 -0.0279  0.2035
  113POPC   C4B 1356   1.645   4.554   4.256 -0.1794  0.1744 -0.1224
  114POPC   NC3 1357   1.994   0.731   2.238 -0.1814 -0.0181  0.0941
  114POPC   PO4 1358   2.199   0.593   2.564  0.0977  0.2241  0.0104
  114POPC   GL1 1359   2.253   0.823   2.878  0.0103  0.3529 -0.0871
  114POPC   GL2 1360   2.461   1.092   2.903  0.2055  0.0596  0.1427
  114POPC   C1A 1361   2.492   0.761   3.224  0.0993  0.0475  0.0128
  114POPC   D2A 1362   2.611   0.546   3.637  0.2654 -0.0184 -0.0801
  114POPC   C3A 1363   3.013   0.301   3.824  0.0951 -0.0402 -0.1654
  114POPC   C4A 1364   3.221  -0.065   3.598 -0.0010  0.1090  0.0370
  114POPC   C1B 1365   2.705   1.232   3.276  0.0957 -0.1822  0.2395
  114POPC   C2B 1366   2.794   1.186   3.682 -0.1521  0.0627 -0.3039
  114POPC   C3B 1367   2.632   1.047   4.078 -0.0602 -0.1770 -0.0847
  114POPC   C4B 1368   2.165   0.992   4.287  0.2446 -0.1907  0.2446
  115POPC   NC3 1369   3.267   1.857   2.652 -0.0423  0.2370  0.1654
  115POPC   PO4 1370   3.441   1.496   2.586 -0.2342 -0.2835 -0.0245
  115POPC   GL1 1371   3.441   1.475   2.977 -0.0230  0.2076  0.0423
  115POPC   GL2 1372   3.330   1.241   3.016 -0.1734  0.2499  0.0275
  115POPC   C1A 1373   3.539   1.884   3.206  0.0502 -0.1455  0.0489
  115POPC   D2A 1374   3.561   2.316   3.451 -0.2067  0.1673 -0.0578
  115POPC   C3A 1375   3.585   2.322   3.929 -0.0236 -0.0548 -0.1934
  115POPC   C4A 1376   3.483   2.118   4.302  0.1198  0.1086  0.2144
  115POPC   C1B 1377   3.265   1.037   3.378  0.0175  0.2733  0.1095
  115POPC   C2B 1378   3.055   0.818   3.768 -0.0536  0.0931 -0.3061
  115POPC   C3B 1379   2.976   0.684   4.268  0.0180 -0.0631 -0.0809
  115POPC   C4B 1380   2.824   0.731   4.686  0.6571 -0.0428 -0.0519
  116POPC   NC3 1381   3.563   3.656   2.400 -0.1281 -0.0315  0.1564
  116POPC   PO4 1382   3.812   3.401   2.291 -0.1828  0.1453 -0.3907
  116POPC   GL1 1383   3.777   3.271   2.634  0.2010 -0.2468  0.0163
  116POPC   GL2 1384   3.991   3.178   2.822  0.0592 -0.1403  0.1574
  116POPC   C1A 1385   3.602   3.224   3.143  0.1511  0.2466  0.2973
  116POPC   D2A 1386   3.675   2.796   3.375 -0.0159  0.1544  0.0799
  116POPC   C3A 1387   3.837   2.870   3.806  0.0890  0.2764 -0.1058
  116POPC   C4A 1388   3.688   3.014   4.198  0.3688  0.3162 -0.1888
  116POPC   C1B 1389   4.120   2.839   3.190  0.0607  0.1866  0.1693
  116POPC   C2B 1390   4.357   2.972   3.550  0.0443  0.4025 -0.0589
  116POPC   C3B 1391   4.542   2.838   3.951  0.2863 -0.2880  0.2500
  116POPC   C4B 1392   4.600   2.893   4.385  0.1995 -0.3026  0.2352
  117POPC   NC3 1393   0.100   4.567   1.949 -0.0006 -0.1079  0.0186
  117POPC   PO4 1394   0.265   4.540   2.307 -0.1402  0.3291  0.3411
  117POPC   GL1 1395   0.494   4.767   2.580  0.4511 -0.3858  0.1080
  117POPC   GL2 1396   0.689   4.633   2.725 -0.0881  0.1607  0.0820
  117POPC   C1A 1397   0.396   4.793   3.071 -0.1514 -0.2544  0.1202
  117POPC   D2A 1398   0.281   5.059   3.489  0.3847 -0.1056  0.0329
  117POPC   C3A 1399   0.550   5.272   3.743  0.1593 -0.0331 -0.2069
  117POPC   C4A 1400   0.824   5.295   4.149 -0.0629 -0.0571 -0.0408
  117POPC   C1B 1401   0.681   4.319   3.122  0.1050 -0.3173  0.1435
  117POPC   C2B 1402   0.817   4.220   3.557 -0.0208  0.0823  0.1608
  117POPC   C3B 1403   0.965   3.982   3.952 -0.0416  0.1625 -0.0975
  117POPC   C4B 1404   1.266   3.838   4.277 -0.0879 -0.0136  0.1545
  118POPC   NC3 1405   5.603   1.837   2.246  0.2733  0.0751 -0.1382
  118POPC   PO4 1406   5.237   1.723   2.178  0.3509  0.1683  0.4077
  118POPC   GL1 1407   5.205   1.928   2.479 -0.3037 -0.1036 -0.4216
  118POPC   GL2 1408   5.320   1.765   2.722  0.0229  0.1167  0.0516
  118POPC   C1A 1409   4.977   2.085   2.834  0.1649 -0.1856 -0.2544
  118POPC   D2A 1410   4.932   2.255   3.218 -0.0826  0.1502  0.0859
  118POPC   C3A 1411   5.117   2.181   3.572 -0.1991  0.0226 -0.1193
  118POPC   C4A 1412   5.396   1.856   3.719  0.1218  0.0964 -0.0216
  118POPC   C1B 1413   5.282   1.394   3.001 -0.1204 -0.2726 -0.0066
  118POPC   C2B 1414   5.291   1.175   3.396  0.2263 -0.2612 -0.0487
  118POPC   C3B 1415   5.322   1.107   3.842 -0.1300 -0.0414  0.2303
  118POPC   C4B 1416   5.391   1.222   4.273 -0.1790  0.1055  0.1882
  119POPC   NC3 1417   0.099   5.440   2.579 -0.0333  0.1807  0.0364
  119POPC   PO4 1418  -0.253   5.354   2.679  0.3160  0.1063 -0.0888
  119POPC   GL1 1419  -0.297   5.269   3.079 -0.1596 -0.1444 -0.1192
  119POPC   GL2 1420   0.028   5.350   3.075  0.2388  0.1888 -0.0362
  119POPC   C1A 1421  -0.112   4.853   3.220  0.3889 -0.2626  0.4547
  119POPC   D2A 1422  -0.134   4.729   3.617 -0.2249 -0.2662 -0.0018
  119POPC   C3A 1423   0.005   4.790   4.066  0.0930  0.1147  0.1337
  119POPC   C4A 1424   0.447   4.881   4.083  0.1590 -0.1400 -0.1601
  119POPC   C1B 1425  -0.221   5.240   3.491  0.0879  0.0757  0.3326
  119POPC   C2B 1426  -0.029   5.297   3.925  0.1364  0.0965  0.0711
  119POPC   C3B 1427   0.270   5.310   4.299  0.0080 -0.1946 -0.2545
  119POPC   C4B 1428   0.275   5.262   4.801  0.2139 -0.0244  0.1360
  120POPC   NC3 1429   5.802   5.887   2.158  0.0774  0.0249 -0.1789
  120POPC   PO4 1430   5.949   5.759   2.480  0.2452 -0.1636 -0.1217
  120POPC   GL1 1431   6.127   5.856   2.819  0.1211  0.6942 -0.2631
  120POPC   GL2 1432   6.057   5.719   3.064 -0.0915 -0.1957 -0.1495
  120POPC   C1A 1433   5.807   6.125   3.094 -0.0385 -0.1449 -0.1734
  120POPC   D2A 1434   5.547   5.869   3.379 -0.1670  0.1554  0.3203
  120POPC   C3A 1435   5.675   5.670   3.805 -0.1221  0.2835 -0.2209
  120POPC   C4A 1436   6.040   5.529   4.089 -0.0903  0.0153 -0.0502
  120POPC   C1B 1437   6.104   5.695   3.550 -0.1623 -0.2779  0.0649
  120POPC   C2B 1438   6.146   6.066   3.828 -0.0415 -0.2590 -0.1564
  120POPC   C3B 1439   6.230   6.208   4.281  0.1480 -0.1165 -0.0499
  120POPC   C4B 1440   6.009   6.416   4.644 -0.3022  0.0783 -0.1703
  121POPC   NC3 1441   4.886   2.666   2.518  0.0149 -0.0911  0.4885
  121POPC   PO4 1442   4.747   3.007   2.426  0.0806 -0.0391  0.2980
  121POPC   GL1 1443   4.841   3.065   2.751  0.4275  0.3427 -0.2471
  121POPC   GL2 1444   5.134   3.133   2.796  0.2380 -0.0786 -0.1795
  121POPC   C1A 1445   4.747   2.768   3.070  0.2232 -0.0665  0.0456
  121POPC   D2A 1446   4.816   2.642   3.548  0.1804  0.1260 -0.2060
  121POPC   C3A 1447   5.092   2.633   3.894 -0.3286 -0.0805 -0.1030
  121POPC   C4A 1448   5.321   2.468   4.258  0.1427 -0.3361 -0.0945
  121POPC   C1B 1449   4.798   3.283   3.146  0.2578  0.0120  0.2295
  121POPC   C2B 1450   4.617   3.418   3.563  0.1938  0.0266 -0.2220
  121POPC   C3B 1451   4.262   3.433   3.894  0.0546 -0.0445 -0.1420
  121POPC   C4B 1452   4.195   3.209   4.220  0.4331 -0.2182  0.0595
  122POPC   NC3 1453   1.947   0.109   2.709  0.1235  0.1148 -0.0846
  122POPC   PO4 1454   1.624  -0.049   2.485 -0.1361  0.0591 -0.1828
  122POPC   GL1 1455   1.530  -0.481   2.728 -0.2153 -0.1241  0.1506
  122POPC   GL2 1456   1.647  -0.259   2.955 -0.1898  0.3085  0.0769
  122POPC   C1A 1457   1.202  -0.637   3.013 -0.2539 -0.2832 -0.0281
  122POPC   D2A 1458   1.063  -0.531   3.469 -0.0855  0.2518 -0.0037
  122POPC   C3A 1459   1.135  -0.602   3.911  0.1617 -0.0159  0.1341
  122POPC   C4A 1460   1.252  -0.697   4.320 -0.1084 -0.0068  0.2961
  122POPC   C1B 1461   1.892  -0.085   3.321 -0.2144 -0.0130 -0.1795
  122POPC   C2B 1462   1.855   0.141   3.747 -0.1159  0.1650  0.1204
  122POPC   C3B 1463   1.965   0.016   4.172  0.0629 -0.1681 -0.0026
  122POPC   C4B 1464   2.029   0.035   4.619 -0.0850  0.0726  0.1377
  123POPC   NC3 1465   1.837   3.095   2.185 -0.1411 -0.1962  0.2831
  123POPC   PO4 1466   1.869   2.898   2.504 -0.1403  0.1047  0.0061
  123POPC   GL1 1467   1.792   3.250   2.685 -0.0869 -0.1882  0.0191
  123POPC   GL2 1468   2.058   3.275   2.890 -0.1175 -0.0309 -0.0620
  123POPC   C1A 1469   1.596   3.479   3.053  0.1125  0.3422  0.0973
  123POPC   D2A 1470   1.351   3.436   3.455 -0.0556  0.1276  0.0376
  123POPC   C3A 1471   1.067   3.798   3.486  0.1532  0.1160  0.2703
  123POPC   C4A 1472   1.187   4.176   3.252 -0.1615 -0.3943 -0.0103
  123POPC   C1B 1473   1.907   3.268   3.418  0.3085 -0.2322  0.0265
  123POPC   C2B 1474   1.901   3.435   3.850 -0.1834  0.0899 -0.2149
  123POPC   C3B 1475   1.646   3.482   4.244  0.2872  0.2371 -0.1709
  123POPC   C4B 1476   1.547   3.628   4.678  0.0059  0.1762  0.1206
  124POPC   NC3 1477   5.298   6.288   3.056  0.1022  0.0965 -0.2472
  124POPC   PO4 1478   5.011   6.256   2.822 -0.0751 -0.0813  0.1297
  124POPC   GL1 1479   4.848   6.286   3.264  0.1233 -0.2970 -0.0432
  124POPC   GL2 1480   4.554   6.162   3.258 -0.3447 -0.0181  0.2425
  124POPC   C1A 1481   5.139   6.061   3.554 -0.1846 -0.2631 -0.0960
  124POPC   D2A 1482   5.446   6.084   3.834  0.0022 -0.0143  0.0897
  124POPC   C3A 1483   5.234   5.840   4.162  0.0525 -0.3101  0.2142
  124POPC   C4A 1484   5.209   5.359   4.328  0.0801 -0.3092 -0.0044
  124POPC   C1B 1485   4.240   6.128   3.622  0.2855  0.1094  0.1052
  124POPC   C2B 1486   3.896   5.999   3.969 -0.1550 -0.0340  0.1550
  124POPC   C3B 1487   3.594   5.982   4.322 -0.0052 -0.0316  0.0079
  124POPC   C4B 1488   3.446   6.412   4.447  0.2341  0.4202  0.2394
  125POPC   NC3 1489   5.220   6.417   2.391  0.1038  0.1892 -0.4170
  125POPC   PO4 1490   5.484   6.659   2.547  0.2062 -0.1465 -0.0382
  125POPC   GL1 1491   5.566   6.785   2.893 -0.1525  0.2119  0.5242
  125POPC   GL2 1492   5.830   6.656   2.964  0.2526  0.0094  0.3873
  125POPC   C1A 1493   5.384   7.156   3.145 -0.0898  0.1994  0.2600
  125POPC   D2A 1494   5.375   7.201   3.641  0.1183 -0.0315 -0.2223
  125POPC   C3A 1495   5.354   7.138   4.085 -0.1715  0.2800 -0.2384
  125POPC   C4A 1496   5.681   7.137   4.474 -0.1908  0.0471  0.0206
  125POPC   C1B 1497   5.796   6.710   3.437  0.1098  0.1780 -0.0124
  125POPC   C2B 1498   5.814   6.432   3.825 -0.0834  0.1003  0.2491
  125POPC   C3B 1499   5.790   6.200   4.217 -0.1129  0.1921  0.0314
  125POPC   C4B 1500   5.679   5.739   4.308  0.2182  0.0108 -0.0965
  126POPC   NC3 1501   3.924   1.550   2.473 -0.2972 -0.1378 -0.1038
  126POPC   PO4 1502   4.029   1.208   2.462 -0.1614  0.1313 -0.1659
  126POPC   GL1 1503   3.833   1.131   2.923  0.1878 -0.3431  0.0258
  126POPC   GL2 1504   3.945   1.431   2.966  0.1530 -0.2945 -0.0217
  126POPC   C1A 1505   3.715   1.295   3.354  0.1370 -0.1689 -0.0783
  126POPC   D2A 1506   3.798   1.506   3.787  0.0997  0.1662 -0.0414
  126POPC   C3A 1507   3.816   1.161   4.143  0.1212 -0.1163  0.2054
  126POPC   C4A 1508   3.660   1.192   4.603 -0.4496  0.0163  0.0090
  126POPC   C1B 1509   4.321   1.461   3.208  0.1854  0.1830  0.1252
  126POPC   C2B 1510   4.680   1.177   3.353 -0.0377 -0.1913  0.0610
  126POPC   C3B 1511   4.760   1.074   3.786 -0.2009 -0.1177  0.1132
  126POPC   C4B 1512   4.790   1.166   4.264 -0.1989 -0.5054 -0.0917
  127POPC   NC3 1513   4.203   0.651   2.260 -0.0454 -0.1746 -0.0425
  127POPC   PO4 1514   4.353   0.348   2.517  0.0509 -0.3467 -0.1043
  127POPC   GL1 1515   4.634   0.412   2.775  0.3440  0.3460  0.3629
  127POPC   GL2 1516   4.506   0.659   2.913  0.0950  0.1241 -0.1575
  127POPC   C1A 1517   4.707   0.224   3.174 -0.0595 -0.0683  0.2261
  127POPC   D2A 1518   5.124   0.208   3.345  0.4013  0.2064 -0.1788
  127POPC   C3A 1519   5.316   0.093   3.766 -0.1643  0.1821 -0.0578
  127POPC   C4A 1520   5.540   0.159   4.161 -0.1873  0.0868  0.3487
  127POPC   C1B 1521   4.386   0.585   3.355 -0.3048  0.0941 -0.1293
  127POPC   C2B 1522   4.435   0.652   3.733  0.0850 -0.0883 -0.2914
  127POPC   C3B 1523   4.303   0.918   4.117 -0.1477 -0.2194 -0.0666
  127POPC   C4B 1524   4.296   1.317   4.331  0.1341 -0.3916 -0.1150
  128POPC   NC3 1525   6.350   1.365   2.513 -0.0155  0.1831  0.3343
  128POPC   PO4 1526   6.592   1.069   2.589 -0.0270  0.1278 -0.0957
  128POPC   GL1 1527   6.911   1.297   2.747  0.2527  0.0864 -0.0530
  128POPC   GL2 1528   7.045   1.075   2.876 -0.0030  0.0502 -0.2010
  128POPC   C1A 1529   7.016   1.572   3.098  0.0364 -0.1122 -0.0019
  128POPC   D2A 1530   7.225   1.971   3.259 -0.3393  0.1911  0.1867
  128POPC   C3A 1531   7.448   1.891   3.707 -0.0951 -0.1683  0.2495
  128POPC   C4A 1532   7.707   1.787   4.083 -0.1938  0.2090  0.0579
  128POPC   C1B 1533   6.812   1.125   3.239  0.2169  0.1158  0.0454
  128POPC   C2B 1534   6.772   1.514   3.509 -0.2709  0.2324 -0.0161
  128POPC   C3B 1535   6.375   1.754   3.560  0.0899  0.0872  0.0620
  128POPC   C4B 1536   5.930   1.864   3.659  0.5115  0.3242  0.0801
  129W        W 1537   6.104   0.267   1.917 -0.2111 -0.1090  0.3694
  130W        W 1538   4.049   3.991   8.228  0.0969 -0.1701  0.2715
  131W        W 1539   0.486   4.309   1.872 -0.0049 -0.0702 -0.0264
  132W        W 1540   6.030   4.007   2.373  0.3310 -0.2736 -0.4434
  133W        W 1541   0.538   1.811   2.096 -0.0404 -0.0860 -0.0265
  134W        W 1542   2.048   2.920   1.733 -0.1049  0.3008  0.0402
  135W        W 1543   6.243   2.518   0.558  0.4486 -0.2230 -0.2785
  136W        W 1544   3.723   2.022   0.300 -0.3144 -0.1590  0.0287
  137W        W 1545   6.349   0.998   6.848  0.1804  0.4206  0.1319
  138W        W 1546   2.064   0.836   7.153 -0.0284  0.3003 -0.3280
  139W        W 1547   1.381   2.557   7.346 -0.0891  0.0033 -0.1926
  140W        W 1548   5.618   4.424   7.304  0.0545 -0.1925  0.1291
  141W        W 1549   6.051   0.065   7.636  0.0644 -0.3506 -0.4270
  142W        W 1550   0.015   0.105   0.627 -0.1545 -0.1164  0.1125
  143W        W 1551   4.020   6.255   8.187 -0.1435 -0.0844 -0.0972
  144W        W 1552   1.176   2.378   8.255  0.0961  0.0205  0.1025
  145W        W 1553   6.198   2.281   6.323 -0.0623  0.0846 -0.0031
  146W        W 1554   3.013   4.680   2.231  0.0997  0.2760 -0.2636
  147W        W 1555   0.392   1.799   1.075  0.1352 -0.0715 -0.0847
  148W        W 1556   2.129   3.940   8.055 -0.1002 -0.2699  0.1857
  149W        W 1557   5.799   3.356   0.784  0.0451  0.2807 -0.0668
  150W        W 1558   1.813   0.732   7.662 -0.1196 -0.0974  0.0340
  151W        W 1559   3.507   4.290   2.530  0.0420 -0.4623 -0.1109
  152W        W 1560   1.817   2.401   0.991  0.0748 -0.0300  0.3856
  153W        W 1561   1.612   1.601   6.611  0.0595 -0.0188 -0.2306
  154W        W 1562   0.612   4.488   6.941  0.1546  0.0494  0.1432
  155W        W 1563   1.149   3.675   0.897 -0.1695  0.2967 -0.0451
  156W        W 1564   1.419   5.519   7.357 -0.0452  0.0567  0.3803
  157W        W 1565   4.799   1.538   8.031 -0.2673  0.0037 -0.2336
  158W        W 1566   2.341   1.603   1.945  0.2274 -0.0047 -0.0785
  159W        W 1567   3.049   1.447   8.370  0.0965 -0.0221  0.1299
  160W        W 1568   6.084   5.162   6.425  0.1196 -0.1556 -0.0526
  161W        W 1569   3.244   3.365   1.533 -0.0577 -0.0658  0.1339
  162W        W 1570   1.481   6.434   2.009  0.1922 -0.1278  0.0461
  163W        W 1571   1.752   4.782   2.785  0.0378 -0.1847 -0.1297
  164W        W 1572   4.563   0.073   7.520  0.0747  0.0201  0.1682
  165W        W 1573   0.660   3.355   2.809 -0.0928  0.1405  0.0047
  166W        W 1574   3.403   0.421   1.602 -0.3254  0.3795 -0.3854
  167W        W 1575   3.507   3.312   1.129 -0.0994  0.1733 -0.2928
  168W        W 1576   6.428   4.457   7.276 -0.1318 -0.0240 -0.1863
  169W        W 1577   4.429   5.842   0.304 -0.0058 -0.0496  0.0676
  170W        W 1578   0.150   0.997   6.419  0.2624  0.0371  0.0190
  171W        W 1579   2.678   2.692   8.789  0.0059 -0.1334 -0.1713
  172W        W 1580   3.676   4.907   2.848  0.0966 -0.1146 -0.0254
  173W        W 1581   1.513   0.142   7.413 -0.0805 -0.0157 -0.2565
  174W        W 1582   3.932   3.738   7.805 -0.1567 -0.2004 -0.0071
  175W        W 1583   1.294   1.932   0.250 -0.3965  0.1873  0.4344
  176W        W 1584   4.592   0.976   1.885 -0.1694  0.0343  0.2980
  177W        W 1585   4.172   5.807   8.686  0.1284 -0.1080 -0.2519
  178W        W 1586   5.215   0.661   0.220 -0.0777 -0.4175  0.0191
  179W        W 1587   4.868   5.473   1.128  0.1957 -0.4331  0.0831
  180W        W 1588   0.618   1.685   2.611  0.0972 -0.0666  0.0586
  181W        W 1589   2.461   0.756   1.456 -0.0714  0.2353 -0.2470
  182W        W 1590   3.918   4.615   8.093 -0.1372 -0.1884 -0.1580
  183W        W 1591   2.284   3.521   6.091 -0.0293  0.1350 -0.0194
  184W        W 1592   3.238   1.234   1.336 -0.1558 -0.1314 -0.1829
  185W        W 1593   1.302   5.176   2.188  0.2538 -0.1057  0.3643
  186W        W 1594   2.198   3.904   1.006 -0.0468 -0.0107  0.2980
  187W        W 1595   2.308   3.316   0.643 -0.0987 -0.2467 -0.0217
  188W        W 1596   2.219   1.124   8.794 -0.2528 -0.0427  0.0048
  189W        W 1597   4.491   2.348   2.633 -0.1156 -0.1551  0.2265
  190W        W 1598   3.459   0.678   8.745  0.0639  0.0700  0.0039
  191W        W 1599   2.303   5.858   0.288 -0.1824  0.1038  0.1394
  192W        W 1600   4.991   0.707   1.724 -0.2512  0.0920 -0.2385
  193W        W 1601   0.448   0.097   2.129  0.0658  0.1832  0.0220
  194W        W 1602   2.078   6.361   1.813  0.0350 -0.1873  0.1722
  195W        W 1603   6.453   3.577   7.880  0.2032  0.0822 -0.0424
  196W        W 1604   5.449   1.390   2.465  0.0610  0.1309  0.1526
  197W        W 1605   2.920   0.832   7.505 -0.3153 -0.0378  0.0830
  198W        W 1606   2.722   4.801   6.984 -0.2264 -0.4660  0.0123
  199W        W 1607   1.505   0.315   1.644 -0.0414  0.2554  0.3372
  200W        W 1608   2.743   5.083   8.109 -0.0192  0.4173  0.0663
  201W        W 1609   4.220   1.256   1.574 -0.1014  0.0145 -0.0087
  202W        W 1610   3.147   0.156   8.633 -0.3618  0.2258  0.0096
  203W        W 1611   3.643   4.197   7.989 -0.1214 -0.3099 -0.1031
  204W        W 1612   2.952   0.210   0.356  0.1604 -0.0680  0.2386
  205W        W 1613   2.652   1.259   2.085 -0.3063  0.0374 -0.0109
  206W        W 1614   5.757   5.398   3.325 -0.4578  0.1845  0.1774
  207W        W 1615   5.679   4.759   0.025  0.2375 -0.0155 -0.1260
  208W        W 1616   4.838   4.367   7.772  0.2209 -0.1102 -0.1950
  209W        W 1617   0.987   5.794   0.974  0.3053 -0.3557  0.1314
  210W        W 1618   5.395   5.757   2.928 -0.2791  0.0373 -0.0465
  211W        W 1619   2.485   4.424   8.248  0.0004  0.0542  0.1964
  212W        W 1620   0.773   2.210   0.308  0.1884 -0.0899 -0.1482
  213W        W 1621   4.863   1.826   0.363 -0.3371 -0.0743 -0.2469
  214W        W 1622   4.348   3.431   7.557  0.2019  0.0437 -0.0442
  215W        W 1623   0.875   5.486   1.411 -0.0323  0.1682 -0.0808
  216W        W 1624   5.147   2.279   1.362 -0.1331  0.0252 -0.1217
  217W        W 1625   4.345   1.168   8.777 -0.2294  0.0331 -0.2455
  218W        W 1626   1.929   1.199   7.500  0.3648  0.2140 -0.0563
  219W        W 1627   5.778   0.131   8.066 -0.2632 -0.1041 -0.0188
  220W        W 1628   5.872   5.290   2.329  0.0202 -0.0065  0.0746
  221W        W 1629   3.493   0.167   0.177  0.2547 -0.3827 -0.0088
  222W        W 1630   3.550   6.417   1.814 -0.0359  0.2689 -0.0744
  223W        W 1631   1.474   3.490   8.734  0.0233 -0.0744 -0.6750
  224W        W 1632   5.749   1.990   8.749  0.1456 -0.0293  0.1037
  225W        W 1633   5.101   3.345   7.097  0.2493 -0.1729 -0.0502
  226W        W 1634   4.801   2.627   1.638  0.1998 -0.2480  0.3920
  227W        W 1635   6.093   0.736   7.124 -0.2617 -0.0597  0.0864
  228W        W 1636   6.012   2.486   0.055  0.0243  0.0864  0.0104
  229W        W 1637   4.218   0.593   1.164  0.2972  0.0057 -0.0710
  230W        W 1638   0.590   1.305   1.895  0.3141 -0.1077 -0.4010
  231W        W 1639   0.884   1.641   1.043  0.0384 -0.3435 -0.1260
  232W        W 1640   3.401   3.657   7.852 -0.0141  0.1078 -0.0735
  233W        W 1641   4.411   4.235   0.544 -0.0010  0.1050  0.0279
  234W        W 1642   2.494   0.373   2.170  0.1008  0.0244  0.1440
  235W        W 1643   2.082   5.210   6.848 -0.1419  0.4103  0.1003
  236W        W 1644   5.608   6.411   2.074  0.1658 -0.0203  0.2925
  237W        W 1645   2.018   3.413   7.888  0.0398  0.0733  0.0783
  238W        W 1646   4.578   4.062   1.965 -0.0457  0.1780 -0.4319
  239W        W 1647   4.008   1.523   1.983  0.1174  0.0271 -0.0427
  240W        W 1648   3.774   2.949   0.582  0.0396  0.1606 -0.0237
  241W        W 1649   4.005   2.078   1.426  0.1432  0.0609 -0.2424
  242W        W 1650   2.927   1.475   0.459  0.1305 -0.4211  0.1188
  243W        W 1651   4.999   5.448   2.874 -0.1468  0.3689  0.2330
  244W        W 1652   5.368   2.120   1.847 -0.1512 -0.0624  0.0160
  245W        W 1653   2.638   5.242   1.542 -0.0500 -0.0825  0.2671
  246W        W 1654   2.380   4.982   0.110 -0.2662  0.1617 -0.1090
  247W        W 1655   5.339   1.329   6.513 -0.1963 -0.0560 -0.0051
  248W        W 1656   0.157   3.781   6.491  0.0414  0.0128  0.4061
  249W        W 1657   2.100   1.233   1.055 -0.0226 -0.1789 -0.0105
  250W        W 1658   1.080   5.499   8.702 -0.0376 -0.0680  0.0434
  251W        W 1659   3.464   2.802   7.879  0.2350 -0.0036  0.0142
  252W        W 1660   2.219   5.764   7.819 -0.0517 -0.0228  0.3039
  253W        W 1661   2.054   3.766   0.519 -0.0627  0.3294  0.1351
  254W        W 1662   2.366   0.507   7.623  0.0086 -0.1443  0.0866
  255W        W 1663   1.835   0.789   8.668  0.0821 -0.0368 -0.1361
  256W        W 1664   5.736   5.228   8.630 -0.1639 -0.0143  0.1847
  257W        W 1665   3.742   3.450   0.247  0.2652 -0.0870 -0.2283
  258W        W 1666   6.488   4.239   6.292 -0.1119 -0.1877 -0.2519
  259W        W 1667   2.163   2.060   1.174 -0.1318 -0.0326 -0.0403
  260W        W 1668   3.651   5.155   1.161  0.4078  0.1167  0.0143
  261W        W 1669   0.472   0.743   8.079  0.0144 -0.0580  0.1413
  262W        W 1670   0.572   1.244   6.337 -0.1399  0.0701 -0.1342
  263W        W 1671   0.123   1.542   1.814  0.0377 -0.2981  0.1782
  264W        W 1672   3.078   0.075   2.962 -0.0526 -0.0219  0.4003
  265W        W 1673   0.739   5.295   6.673  0.0520  0.0082 -0.1517
  266W        W 1674   0.713   0.382   8.342  0.2043 -0.1277 -0.0165
  267W        W 1675   4.920   0.170   7.854 -0.2654 -0.0491 -0.0403
  268W        W 1676   3.779   1.912   2.803 -0.0985  0.2026  0.1992
  269W        W 1677   2.582   0.762   8.028  0.3020 -0.2326 -0.0367
  270W        W 1678   1.601   0.841   1.292 -0.3770 -0.2047  0.1760
  271W        W 1679   6.356   6.194   0.299 -0.3202 -0.1190  0.0835
  272W        W 1680   1.829   1.515   1.933  0.2783  0.0100  0.2137
  273W        W 1681   1.543   4.883   1.783  0.0383  0.0690 -0.0589
  274W        W 1682   1.670   3.028   7.186 -0.0025 -0.0942 -0.4356
  275W        W 1683   5.489   5.148   0.957 -0.2290 -0.2807  0.1568
  276W        W 1684   2.260   6.473   0.783  0.0936  0.1684  0.1444
  277W        W 1685   2.373   3.948   6.762  0.0226 -0.0933 -0.0169
  278W        W 1686   3.059   2.465   8.450 -0.1499 -0.1280  0.4186
  279W        W 1687   5.970   1.976   6.659 -0.3082 -0.0923 -0.2494
  280W        W 1688   3.341   4.844   6.358 -0.5192 -0.0177 -0.2483
  281W        W 1689   5.788   1.683   7.925 -0.1567  0.1631 -0.1301
  282W        W 1690   1.615   0.604   0.408  0.0037 -0.0310  0.1225
  283W        W 1691   0.443   6.081   8.524 -0.2979 -0.3524 -0.0479
  284W        W 1692   0.851   2.516   7.119  0.1640  0.1489 -0.2347
  285W        W 1693   5.781   5.233   6.842  0.2333 -0.2071  0.2727
  286W        W 1694   0.810   4.867   0.118  0.0689  0.3433 -0.3154
  287W        W 1695   5.421   4.047   7.004 -0.1252 -0.0573 -0.1304
  288W        W 1696   3.828   5.356   8.768  0.2338 -0.0283 -0.0013
  289W        W 1697   2.091   6.311   7.918 -0.2219 -0.2749  0.2702
  290W        W 1698   3.836   5.855   8.331 -0.0630  0.2623 -0.0167
  291W        W 1699   6.383   5.138   2.232 -0.0446 -0.0470  0.0996
  292W        W 1700   0.308   1.008   2.124  0.1959  0.1067 -0.0713
  293W        W 1701   0.846   6.457   8.801  0.0192  0.1422  0.0796
  294W        W 1702   1.106   0.662   8.475  0.2305  0.1402 -0.1394
  295W        W 1703   2.449   5.323   8.609 -0.0273  0.0110  0.3012
  296W        W 1704   3.109   0.848   6.083 -0.0903  0.1055 -0.0992
  297W        W 1705   6.005   5.738   8.715  0.1984 -0.1120  0.0334
  298W        W 1706   4.412   4.587   8.482 -0.1385  0.2128  0.0185
  299W        W 1707   5.190   0.918   7.388 -0.1349 -0.1336 -0.2230
  300W        W 1708   5.501   6.429   0.835 -0.0458 -0.1475  0.1167
  301W        W 1709   0.199   3.999   1.134  0.3116  0.3984  0.2638
  302W        W 1710   2.378   6.136   7.209  0.1110 -0.2133  0.2720
  303W        W 1711   4.571   2.946   8.061  0.0329  0.1621 -0.1644
  304W        W 1712   4.831   5.119   6.509 -0.2586  0.2350  0.0007
  305W        W 1713   3.405   5.954   6.489 -0.0997 -0.3757  0.3366
  306W        W 1714   5.760   2.078   7.602  0.3733  0.1400  0.1400
  307W        W 1715   3.518   5.861   0.598 -0.2651  0.1083 -0.1414
  308W        W 1716   2.157   2.073   0.688 -0.1296  0.4515  0.0327
  309W        W 1717   0.593   4.811   1.655 -0.2086 -0.1132 -0.0587
  310W        W 1718   0.751   3.535   1.723  0.0881  0.0132 -0.1451
  311W        W 1719   6.395   5.980   7.035  0.0411 -0.1227 -0.3486
  312W        W 1720   5.245   4.586   7.587 -0.3538  0.0203  0.2375
  313W        W 1721   1.804   2.078   7.761  0.1580 -0.0340 -0.1385
  314W        W 1722   3.783   5.790   7.211 -0.0938  0.1021  0.0861
  315W        W 1723   1.022   5.102   1.777 -0.2634  0.1173 -0.3548
  316W        W 1724   1.614   0.461   2.750 -0.3127 -0.3825  0.0923
  317W        W 1725   6.239   4.137   0.571 -0.0689 -0.4548  0.0509
  318W        W 1726   5.619   6.185   6.972  0.0227  0.1258 -0.0111
  319W        W 1727   2.682   2.361   2.290 -0.1782 -0.0922  0.1927
  320W        W 1728   4.084   1.394   6.318  0.0598  0.0285  0.0147
  321W        W 1729   1.927   5.717   7.393 -0.0036 -0.0401 -0.0698
  322W        W 1730   5.475   3.339   0.377 -0.0899 -0.3440  0.0192
  323W        W 1731   0.749   1.104   7.775  0.0371  0.0530 -0.0416
  324W        W 1732   2.247   0.981   7.770 -0.2616  0.1465  0.1254
  325W        W 1733   5.966   4.214   6.230  0.2973 -0.0549 -0.0057
  326W        W 1734   5.856   1.735   7.085  0.3505 -0.0935 -0.0163
  327W        W 1735   5.686   5.566   1.831  0.0011 -0.0528 -0.0764
  328W        W 1736   3.270   5.638   0.995 -0.0331  0.1058  0.1514
  329W        W 1737   6.443   4.464   8.466 -0.1537 -0.1381  0.3464
  330W        W 1738   1.897   4.660   0.207  0.1161 -0.0922 -0.3554
  331W        W 1739   0.692   3.684   1.189 -0.5028  0.2176 -0.2640
  332W        W 1740   4.721   2.084   8.445  0.1270 -0.0639  0.0869
  333W        W 1741   0.816   2.831   8.316  0.0543 -0.0790  0.0358
  334W        W 1742   3.932   6.246   0.403 -0.1171  0.0731 -0.1413
  335W        W 1743   0.629   0.226   6.628  0.1198  0.0934 -0.3048
  336W        W 1744   2.168   4.024   7.230  0.2455 -0.0364 -0.1023
  337W        W 1745   4.325   5.104   1.225  0.3162 -0.2224 -0.0631
  338W        W 1746   4.204   0.703   1.728 -0.1406  0.0367  0.0979
  339W        W 1747   1.126   2.967   7.021 -0.0264  0.1141 -0.2528
  340W        W 1748   2.787   6.415   0.714 -0.2884 -0.1974 -0.0560
  341W        W 1749   5.024   5.602   6.532  0.0017  0.1032  0.2488
  342W        W 1750   3.655   0.661   2.136  0.0747 -0.2771 -0.0371
  343W        W 1751   3.161   1.000   2.077  0.0251  0.2500  0.4152
  344W        W 1752   4.238   3.217   0.965  0.0602  0.0869  0.1741
  345W        W 1753   2.329   2.510   0.940 -0.0864 -0.2640  0.1202
  346W        W 1754   4.503   4.139   6.923  0.0757 -0.1887 -0.2891
  347W        W 1755   2.225   4.844   7.159  0.2920  0.0970 -0.2937
  348W        W 1756   2.917   2.339   7.328  0.1004 -0.2704  0.5030
  349W        W 1757   1.838   3.797   2.769 -0.0937  0.2627 -0.0201
  350W        W 1758   4.319   2.711   0.649  0.0519  0.1274  0.1212
  351W        W 1759   5.376   4.095   3.005 -0.0682 -0.2149  0.0562
  352W        W 1760   0.126   5.641   7.834  0.1274  0.0342 -0.1104
  353W        W 1761   5.391   6.301   8.735  0.1389 -0.1088 -0.0593
  354W        W 1762   6.142   5.741   1.556 -0.2293  0.1148  0.0523
  355W        W 1763   3.784   5.214   7.395  0.0303  0.1182  0.1287
  356W        W 1764   0.831   5.987   0.146 -0.0984 -0.2235  0.1342
  357W        W 1765   4.122   1.150   1.069  0.1321  0.1557  0.1386
  358W        W 1766   0.013   5.786   1.214 -0.0392 -0.1703  0.0067
  359W        W 1767   1.839   3.641   8.348 -0.3497 -0.1196 -0.0011
  360W        W 1768   4.240   2.613   7.174 -0.4574 -0.0134 -0.2575
  361W        W 1769   0.939   3.548   8.756  0.2823 -0.2859 -0.2608
  362W        W 1770   4.720   3.116   1.493 -0.1595 -0.2203 -0.0745
  363W        W 1771   0.354   4.707   7.301  0.1606  0.0878  0.0599
  364W        W 1772   3.724   0.453   1.208 -0.2483 -0.0374  0.3431
  365W        W 1773   0.253   0.219   1.597 -0.0988 -0.0503  0.0733
  366W        W 1774   5.205   5.040   8.079  0.3417  0.3854  0.0210
  367W        W 1775   1.300   4.062   7.902 -0.0269  0.2705 -0.0926
  368W        W 1776   5.286   5.996   2.038 -0.1678 -0.0724  0.0757
  369W        W 1777   4.535   0.264   0.466 -0.1070 -0.0192 -0.2357
  370W        W 1778   4.037   3.847   0.449  0.0777 -0.0458 -0.2401
  371W        W 1779   3.327   5.104   8.742 -0.3453 -0.0244  0.2530
  372W        W 1780   2.834   6.282   7.123  0.0282  0.1344 -0.0036
  373W        W 1781   0.901   2.490   8.659 -0.2125  0.1099 -0.3062
  374W        W 1782   3.967   3.124   1.462 -0.1673  0.0670  0.1217
  375W        W 1783   2.264   3.435   2.073  0.2939 -0.0007  0.0305
  376W        W 1784   3.353   0.471   8.204  0.1135 -0.0209 -0.3472
  377W        W 1785   0.211   0.997   1.106  0.0801 -0.1128 -0.0737
  378W        W 1786   0.009   1.148   8.164 -0.1104 -0.0211 -0.2926
  379W        W 1787   4.283   5.781   8.074  0.0486 -0.3602  0.4927
  380W        W 1788   5.131   5.522   1.913  0.0657  0.0525  0.3272
  381W        W 1789   1.991   5.064   1.886 -0.0064 -0.0384 -0.1157
  382W        W 1790   5.639   1.001   7.820 -0.0590 -0.0794  0.2531
  383W        W 1791   5.642   1.399   7.512 -0.2444 -0.0771  0.0119
  384W        W 1792   3.319   3.190   2.503 -0.2023  0.1716 -0.1506
  385W        W 1793   4.030   3.866   2.265 -0.1946 -0.0072  0.0917
  386W        W 1794   4.329   1.805   1.665 -0.2700  0.0910  0.1757
  387W        W 1795   3.743   4.092   1.542  0.1058  0.1602 -0.4266
  388W        W 1796   4.069   4.231   1.905  0.0433 -0.3129  0.0002
  389W        W 1797   4.680   0.857   7.152  0.1184  0.1038  0.1063
  390W        W 1798   0.245   4.013   8.416  0.0794  0.2518 -0.2542
  391W        W 1799   4.207   6.246   2.480  0.0472 -0.0424  0.0475
  392W        W 1800   1.674   5.119   6.371 -0.1758 -0.0324 -0.0171
  393W        W 1801   1.460   1.375   8.113 -0.0656  0.0286  0.2122
  394W        W 1802   4.679   5.455   1.618  0.2833 -0.3069  0.1795
  395W        W 1803   5.884   3.614   1.621  0.0243 -0.0924  0.1805
  396W        W 1804   5.671   4.611   1.529  0.2255 -0.0127  0.1878
  397W        W 1805   4.786   4.250   7.292 -0.0317 -0.1560  0.1563
  398W        W 1806   5.142   0.887   6.897  0.0011  0.0009 -0.3295
  399W        W 1807   4.677   3.467   8.008  0.2116 -0.1662 -0.0883
  400W        W 1808   4.174   3.125   7.179 -0.0399  0.0590 -0.0539
  401W        W 1809   5.616   3.412   8.335  0.4128 -0.5069  0.3513
  402W        W 1810   5.572   6.082   6.443 -0.0360 -0.2307  0.0349
  403W        W 1811   4.273   4.378   7.313 -0.1448 -0.1131  0.4400
  404W        W 1812   1.906   3.700   6.870 -0.3540  0.0668 -0.2231
  405W        W 1813   2.555   1.341   6.452  0.1392 -0.1225  0.1622
  406W        W 1814   2.744   3.510   1.720  0.0034 -0.0613  0.1776
  407W        W 1815   1.197   1.125   6.827  0.1959 -0.3214  0.0549
  408W        W 1816   5.869   0.564   0.167  0.2120 -0.0383 -0.0599
  409W        W 1817   0.884   6.243   6.220  0.1581 -0.0365  0.0072
  410W        W 1818   1.125   6.493   7.849 -0.0175  0.0580  0.1048
  411W        W 1819   0.607   3.618   0.680  0.0829 -0.1782 -0.0595
  412W        W 1820   5.172   2.285   8.536 -0.0536 -0.0501  0.0933
  413W        W 1821   0.663   4.063   0.305  0.0965  0.0233  0.1727
  414W        W 1822   5.126   6.063   7.193  0.0278 -0.1420  0.0376
  415W        W 1823   3.015   2.390   0.107  0.0575 -0.2073 -0.0778
  416W        W 1824   6.149   3.690   6.589  0.0067 -0.2460 -0.1913
  417W        W 1825   6.171   6.457   1.013  0.2191 -0.0312 -0.0111
  418W        W 1826   2.437   4.457   7.383 -0.2164 -0.2809  0.1229
  419W        W 1827   3.722   3.233   7.732  0.0717  0.2130  0.0401
  420W        W 1828   2.463   1.253   1.444 -0.1773  0.0113 -0.4006
  421W        W 1829   2.100   0.307   0.206  0.2385  0.0212 -0.0629
  422W        W 1830   1.725   1.239   6.934  0.1647  0.4626 -0.0664
  423W        W 1831   3.313   6.163   2.181  0.0418  0.2708 -0.4232
  424W        W 1832   5.057   5.486   7.063 -0.1838  0.0047  0.3063
  425W        W 1833   4.052   0.216   0.243  0.0464  0.0532  0.0011
  426W        W 1834   1.523   4.359   1.056  0.0810  0.2099 -0.2285
  427W        W 1835   0.769   4.066   8.636 -0.2530  0.2725  0.2068
  428W        W 1836   1.309   4.391   8.247  0.2507 -0.0013 -0.1371
  429W        W 1837   5.378   1.079   8.264 -0.1694  0.2168  0.1039
  430W        W 1838   6.156   6.273   8.207  0.2977  0.0232  0.0960
  431W        W 1839   1.774   5.075   2.348 -0.1577  0.0575  0.2459
  432W        W 1840   1.528   3.575   1.324 -0.1311  0.2042  0.3178
  433W        W 1841   3.651   2.736   6.347 -0.0548 -0.1463  0.0228
  434W        W 1842   1.048   5.625   7.657 -0.3221  0.2561 -0.1848
  435W        W 1843   3.110   4.200   8.770  0.2843  0.1457  0.0749
  436W        W 1844   5.241   1.874   0.051  0.2137 -0.0572 -0.2732
  437W        W 1845   1.080   0.400   1.323  0.0628  0.3247 -0.0635
  438W        W 1846   4.813   5.114   2.034  0.1221 -0.0094  0.2278
  439W        W 1847   2.198   2.131   2.690  0.2189 -0.1675  0.2069
  440W        W 1848   3.275   2.639   6.998 -0.3508  0.0377  0.1473
  441W        W 1849   5.418   3.599   8.783  0.1785  0.3759  0.2201
  442W        W 1850   1.191   3.884   6.822  0.1724 -0.0891  0.2595
  443W        W 1851   2.439   3.657   0.181  0.1175 -0.1521  0.1340
  444W        W 1852   2.515   2.515   2.731  0.0494 -0.2962  0.2554
  445W        W 1853   6.439   2.278   7.574 -0.0593  0.1509 -0.3366
  446W        W 1854   4.083   1.797   6.621  0.2679  0.1300 -0.1647
  447W        W 1855   1.214   3.802   8.381 -0.3098 -0.1983 -0.1695
  448W        W 1856   0.939   3.875   5.838 -0.3619 -0.1494  0.0838
  449W        W 1857   0.045   4.101   0.171 -0.0313  0.1372  0.2345
  450W        W 1858   3.530   5.008   7.837  0.2697  0.4411 -0.1222
  451W        W 1859   2.970   0.647   0.039 -0.0329  0.0672  0.2154
  452W        W 1860   1.070   5.858   7.167 -0.1786  0.1555 -0.0699
  453W        W 1861   3.101   6.313   7.579  0.0750 -0.1553 -0.1700
  454W        W 1862   0.995   3.777   0.457  0.0689  0.0318  0.0326
  455W        W 1863   2.825   0.396   7.810  0.1403 -0.1381 -0.1934
  456W        W 1864   1.143   5.068   8.136 -0.4712  0.1818  0.0846
  457W        W 1865   3.642   1.802   8.506 -0.0451 -0.1817  0.3108
  458W        W 1866   0.858   1.043   8.727  0.3441  0.4307  0.3700
  459W        W 1867   3.017   4.339   1.225  0.0116 -0.0024  0.0004
  460W        W 1868   4.134   1.546   0.795  0.3464  0.0396 -0.1823
  461W        W 1869   2.194   4.390   1.814 -0.1268  0.4598  0.1708
  462W        W 1870   1.946   1.285   0.543  0.0213  0.1245  0.0593
  463W        W 1871   2.750   0.087   1.210  0.1661  0.2505 -0.2616
  464W        W 1872   0.802   4.686   2.186  0.0066 -0.1423 -0.3943
  465W        W 1873   0.779   0.871   0.455 -0.1716 -0.0787  0.0908
  466W        W 1874   1.974   6.020   8.295 -0.0460 -0.2792  0.0698
  467W        W 1875   0.411   4.760   0.432  0.0689 -0.0145 -0.1712
  468W        W 1876   2.147   1.443   7.916 -0.4016  0.0060  0.0590
  469W        W 1877   1.251   6.076   2.282 -0.0210  0.0133 -0.5690
  470W        W 1878   0.555   5.856   8.079  0.2555  0.0275 -0.0812
  471W        W 1879   6.442   2.205   2.576  0.0804 -0.1849  0.0332
  472W        W 1880   2.866   4.950   1.836 -0.1811 -0.1363  0.1090
  473W        W 1881   1.821   4.080   1.299  0.0942  0.2988  0.0356
  474W        W 1882   2.850   4.686   6.495 -0.3017 -0.0100  0.0852
  475W        W 1883   5.883   5.151   7.348  0.0750  0.4271 -0.0890
  476W        W 1884   4.983   6.152   7.632  0.0162  0.1679 -0.0493
  477W        W 1885   6.135   4.778   1.986  0.2577  0.1777 -0.3015
  478W        W 1886   0.450   2.245   7.192 -0.3134 -0.1153  0.3815
  479W        W 1887   4.952   1.141   0.847 -0.2138 -0.0835 -0.1492
  480W        W 1888   4.601   3.776   0.371  0.1154 -0.1479  0.0132
  481W        W 1889   2.037   5.268   7.735 -0.0347 -0.3151 -0.1385
  482W        W 1890   4.777   1.733   7.564  0.2135  0.0921  0.2864
  483W        W 1891   3.195   4.040   7.593 -0.4430  0.3855 -0.1037
  484W        W 1892   3.420   4.563   0.021  0.1234 -0.1968  0.0596
  485W        W 1893   4.283   5.322   8.475 -0.1568 -0.1394  0.2902
  486W        W 1894   6.215   3.808   1.935  0.0160  0.0622 -0.1408
  487W        W 1895   1.013   4.286   2.524 -0.1356  0.1420 -0.0857
  488W        W 1896   0.524   3.805   2.112  0.1491  0.0127  0.0547
  489W        W 1897   1.031   1.613   6.558 -0.2270 -0.1023  0.1473
  490W        W 1898   2.184   2.412   8.240 -0.3173 -0.1755  0.3791
  491W        W 1899   1.497   0.715   8.155 -0.1958  0.2601 -0.2186
  492W        W 1900   2.947   5.426   8.563  0.2424  0.1375  0.4846
  493W        W 1901   5.265   5.125   2.267 -0.0993 -0.1096  0.1443
  494W        W 1902   5.650   2.922   0.174  0.1795  0.2900  0.0594
  495W        W 1903   5.084   3.525   8.296 -0.0530 -0.0383 -0.3116
  496W        W 1904   5.440   2.957   7.468 -0.1684  0.0850 -0.5846
  497W        W 1905   0.671   2.948   7.263 -0.0740 -0.0115 -0.0909
  498W        W 1906   0.293   0.065   6.935  0.0468 -0.1479 -0.2569
  499W        W 1907   6.230   2.297   8.455  0.4346  0.0427 -0.0790
  500W        W 1908   4.318   3.455   0.017 -0.2232  0.2240  0.1233
  501W        W 1909   4.960   4.072   1.638  0.0973 -0.1467  0.0360
  502W        W 1910   4.222   1.538   7.098 -0.0390  0.2920  0.0573
  503W        W 1911   0.696   2.789   6.765  0.0976  0.2187  0.0179
  504W        W 1912   5.712   4.318   0.548 -0.0816  0.0020  0.0838
  505W        W 1913   0.825   5.659   6.354 -0.0857 -0.1830 -0.0942
  506W        W 1914   4.819   1.079   5.973 -0.0834  0.2580  0.1923
  507W        W 1915   5.114   5.793   1.434 -0.1016  0.2567  0.0872
  508W        W 1916   5.542   4.543   6.824 -0.1412 -0.3693  0.0055
  509W        W 1917   6.388   3.567   1.521  0.0639 -0.1505  0.1358
  510W        W 1918   1.379   5.284   1.449 -0.0247  0.0080 -0.1191
  511W        W 1919   4.443   2.459   8.589  0.3997 -0.3078 -0.2874
  512W        W 1920   3.773   3.589   0.788 -0.2586 -0.1541 -0.0683
  513W        W 1921   2.152   1.981   8.610  0.1274  0.0202  0.0316
  514W        W 1922   4.778   4.929   7.903 -0.1418 -0.2879  0.0137
  515W        W 1923   0.486   6.233   1.712 -0.0864  0.0316 -0.0233
  516W        W 1924   3.244   4.533   1.622  0.0952  0.1072  0.2240
  517W        W 1925   5.593   4.871   7.787  0.0178  0.2720  0.1108
  518W        W 1926   2.253   4.194   0.345 -0.0098  0.2105  0.1655
  519W        W 1927   1.106   1.229   1.192  0.2745  0.1519  0.3079
  520W        W 1928   4.215   4.189   2.804  0.3750  0.1598 -0.0780
  521W        W 1929   5.784   0.322   0.681 -0.4927  0.2253 -0.1218
  522W        W 1930   2.351   3.202   0.023 -0.1290 -0.1372  0.2853
  523W        W 1931   6.010   4.836   2.469 -0.2295  0.1870  0.0402
  524W        W 1932   0.802   0.312   1.794  0.2802 -0.0209  0.1524
  525W        W 1933   0.655   1.492   8.569 -0.2060 -0.3866 -0.1006
  526W        W 1934   1.424   1.159   8.550  0.1678  0.0272  0.2255
  527W        W 1935   5.468   3.034   6.984  0.2123 -0.0793  0.0161
  528W        W 1936   3.935   0.333   1.866 -0.0247 -0.0653 -0.0008
  529W        W 1937   0.105   6.274   1.255  0.1978 -0.2644  0.0647
  530W        W 1938   0.837   3.410   2.229  0.0975  0.1397  0.0225
  531W        W 1939   0.039   4.131   7.923  0.0854 -0.0207 -0.1050
  532W        W 1940   0.426   1.471   7.675 -0.0429 -0.2930  0.1589
  533W        W 1941   0.228   5.741   7.348 -0.2925  0.1020  0.0463
  534W        W 1942   5.168   2.538   7.286  0.2052 -0.0082 -0.2376
  535W        W 1943   1.429   0.719   6.503 -0.0533 -0.2187 -0.1035
  536W        W 1944   0.826   2.819   0.508 -0.1862 -0.0741 -0.2220
  537W        W 1945   1.609   1.684   8.692 -0.1559  0.1002 -0.3066
  538W        W 1946   1.608   6.255   7.929  0.2684  0.1850 -0.0900
  539W        W 1947   5.311   0.102   1.293 -0.0106  0.0778 -0.0685
  540W        W 1948   4.157   5.576   1.579 -0.1335 -0.1760  0.1258
  541W        W 1949   0.301   5.202   0.109 -0.1802  0.3272 -0.2019
  542W        W 1950   4.265   2.996   8.469 -0.0866  0.0466  0.0827
  543W        W 1951   0.622   5.396   7.903  0.2244 -0.1692 -0.2810
  544W        W 1952   2.023   0.129   2.224  0.0591  0.2921  0.0189
  545W        W 1953   4.630   2.414   0.993 -0.1986 -0.0442 -0.0041
  546W        W 1954   4.223   5.992   0.719 -0.1884 -0.0272  0.0701
  547W        W 1955   5.512   3.858   7.888 -0.2622 -0.0441  0.1088
  548W        W 1956   1.648   6.353   1.516 -0.3854 -0.0130 -0.0512
  549W        W 1957   0.431   2.791   1.434  0.0779 -0.3065  0.1849
  550W        W 1958   2.301   2.053   0.235 -0.1771 -0.2061 -0.2252
  551W        W 1959   3.794   1.744   7.125  0.5206 -0.0809 -0.0965
  552W        W 1960   1.061   1.068   6.341  0.1209 -0.2447 -0.2579
  553W        W 1961   3.308   3.150   2.011  0.1940  0.3162  0.1064
  554W        W 1962   4.465   4.400   2.422 -0.1088  0.1817 -0.3242
  555W        W 1963   3.552   1.133   7.705  0.3024  0.0724 -0.0510
  556W        W 1964   1.508   5.776   0.925  0.1201  0.0891 -0.2081
  557W        W 1965   0.304   2.637   7.455 -0.1588 -0.1733  0.1736
  558W        W 1966   1.746   0.868   0.794 -0.1970 -0.3152 -0.0345
  559W        W 1967   1.712   6.328   6.504  0.3275 -0.1497 -0.3558
  560W        W 1968   0.375   3.740   8.829  0.1071 -0.0104 -0.0327
  561W        W 1969   3.140   2.851   8.765  0.0630 -0.3062 -0.0536
  562W        W 1970   0.299   6.049   2.179 -0.1891 -0.1461  0.0236
  563W        W 1971   5.171   4.040   8.400 -0.0611 -0.0671 -0.1674
  564W        W 1972   1.450   4.693   2.409  0.0770 -0.0793 -0.0947
  565W        W 1973   4.325   1.465   8.027  0.2838  0.0540 -0.0746
  566W        W 1974   2.454   4.759   2.095 -0.0864  0.0373 -0.0451
  567W        W 1975   5.479   3.544   7.334 -0.0851 -0.1205 -0.1443
  568W        W 1976   3.475   4.990   1.695  0.0938 -0.0792  0.2425
  569W        W 1977   4.635   2.232   0.570 -0.0923  0.0655  0.0704
  570W        W 1978   2.769   1.349   7.066  0.1774  0.3888 -0.2950
  571W        W 1979   2.193   3.932   8.557 -0.0306  0.0103  0.3703
  572W        W 1980   5.694   2.560   7.427  0.0536 -0.1413 -0.2531
  573W        W 1981   0.099   4.986   8.486  0.0533 -0.0619  0.1337
  574W        W 1982   2.140   2.484   1.389  0.1424 -0.0076 -0.0003
  575W        W 1983   1.561   1.588   0.513  0.1202 -0.1031 -0.0230
  576W        W 1984   4.354   4.976   8.170  0.2224 -0.0094 -0.3387
  577W        W 1985   4.898   1.026   6.451  0.0609 -0.0562 -0.1883
  578W        W 1986   5.711   5.551   6.462 -0.2293  0.1597 -0.0109
  579W        W 1987   2.359   3.426   6.696  0.0134 -0.2795 -0.2704
  580W        W 1988   0.170   1.049   7.718 -0.0343  0.2406 -0.1641
  581W        W 1989   6.296   2.777   8.487 -0.2152 -0.1909 -0.0025
  582W        W 1990   6.116   1.237   7.678 -0.1111 -0.0792 -0.1131
  583W        W 1991   2.641   0.988   8.652 -0.2842  0.0177  0.2161
  584W        W 1992   5.406   2.572   6.848 -0.1781  0.2342 -0.3441
  585W        W 1993   2.596   6.294   0.242  0.1780 -0.1135 -0.2811
  586W        W 1994   2.038   0.832   0.303 -0.1957 -0.2069 -0.3433
  587W        W 1995   1.143   0.545   2.046  0.2750 -0.3577  0.3941
  588W        W 1996   5.611   2.514   1.165  0.0984  0.1142 -0.2389
  589W        W 1997   1.533   2.093   6.740  0.2815  0.0258  0.0161
  590W        W 1998   4.599   4.608   6.992  0.2505 -0.0679  0.0610
  591W        W 1999   2.381   1.650   8.339 -0.0238  0.0131 -0.1236
  592W        W 2000   0.872   6.493   0.423 -0.0890 -0.0953 -0.0049
  593W        W 2001   3.537   1.722   1.343 -0.0637 -0.0964 -0.1653
  594W        W 2002   3.520   2.215   1.661  0.0735  0.0623 -0.1171
  595W        W 2003   2.832   1.907   0.171  0.0804  0.1174 -0.1229
  596W        W 2004   3.879   6.385   8.739  0.2323  0.2529 -0.1264
  597W        W 2005   3.421   6.384   0.577 -0.0614 -0.2526 -0.3245
  598W        W 2006   0.411   0.467   0.675  0.0422 -0.0895  0.2140
  599W        W 2007   5.595   2.048   1.438  0.0046  0.1101 -0.0490
  600W        W 2008   3.002   2.292   2.701 -0.1470 -0.2160  0.0889
  601W        W 2009   3.263   0.339   7.476 -0.0057 -0.1812 -0.0046
  602W        W 2010   4.461   2.270   1.580 -0.1338 -0.0214  0.0106
  603W        W 2011   5.842   2.660   6.367  0.2674 -0.1108 -0.0101
  604W        W 2012   0.984   1.907   0.623  0.2007 -0.0085  0.0431
  605W        W 2013   1.098   3.417   6.671  0.0815  0.1192  0.0529
  606W        W 2014   3.457   1.060   0.339 -0.1082  0.0201 -0.1136
  607W        W 2015   5.119   5.238   1.466  0.1517 -0.1481 -0.0067
  608W        W 2016   3.550   4.741   0.671 -0.0962 -0.0937  0.2628
  609W        W 2017   3.383   0.904   1.659  0.1944 -0.0381  0.0653
  610W        W 2018   1.470   1.761   2.359  0.2003  0.0333  0.1236
  611W        W 2019   2.516   4.185   7.789  0.2082  0.0213  0.2587
  612W        W 2020   6.303   1.568   6.808  0.1726  0.0110 -0.1965
  613W        W 2021   6.400   4.968   7.331 -0.1870 -0.1047  0.1889
  614W        W 2022   0.894   2.108   7.949  0.0290 -0.0150 -0.1931
  615W        W 2023   3.411   0.782   7.321  0.0433  0.0689  0.1190
  616W        W 2024   4.380   1.627   8.476  0.3002 -0.1046 -0.0684
  617W        W 2025   3.819   2.987   1.921  0.1641  0.0105 -0.3285
  618W        W 2026   5.496   6.164   0.355 -0.1079 -0.0964 -0.2174
  619W        W 2027   3.591   4.377   3.029  0.0690  0.2566 -0.2362
  620W        W 2028   1.555   6.357   8.414 -0.1456 -0.1809 -0.0798
  621W        W 2029   1.269   0.711   0.944 -0.0589  0.1065  0.0434
  622W        W 2030   4.639   6.169   7.213 -0.0287  0.0631 -0.1271
  623W        W 2031   0.397   2.277   7.819 -0.1693  0.2105  0.4980
  624W        W 2032   5.597   1.538   1.269 -0.0615 -0.0914 -0.3142
  625W        W 2033   2.007   4.248   7.654 -0.0918  0.1531  0.1250
  626W        W 2034   3.119   5.381   8.092 -0.1149 -0.0360  0.0901
  627W        W 2035   3.617   1.894   2.281 -0.1919 -0.0051  0.1448
  628W        W 2036   0.031   3.481   6.104 -0.2250 -0.0401  0.1899
  629W        W 2037   1.795   2.703   8.527 -0.0100  0.0346 -0.1329
  630W        W 2038   1.624   2.871   3.134  0.0605  0.1862  0.3377
  631W        W 2039   5.485   0.663   0.810  0.2154 -0.2003  0.0798
  632W        W 2040   6.122   2.403   1.018 -0.0464  0.0852 -0.0775
  633W        W 2041   4.635   5.551   7.306  0.2598  0.0514  0.0313
  634W        W 2042   3.784   0.190   8.141 -0.2377  0.0515 -0.0318
  635W        W 2043   0.523   0.013   7.418  0.0340  0.0522  0.1522
  636W        W 2044   0.047   4.755   0.084 -0.0865 -0.0193 -0.0501
  637W        W 2045   3.362   6.050   7.021  0.3038  0.0132 -0.1129
  638W        W 2046   2.847   3.661   6.996  0.3388  0.4662  0.3074
  639W        W 2047   3.495   2.790   8.415 -0.3984 -0.1508  0.0150
  640W        W 2048   0.017   1.977   7.021 -0.3866 -0.0624  0.1785
  641W        W 2049   6.363   3.692   0.029  0.0245  0.1805 -0.1036
  642W        W 2050   3.198   2.242   0.564  0.0489 -0.0561 -0.0285
  643W        W 2051   4.714   2.343   7.036 -0.2541  0.0131  0.0104
  644W        W 2052   2.487   3.469   5.608 -0.0736  0.0384  0.0905
  645W        W 2053   4.731   5.792   0.762 -0.1714 -0.0918 -0.0863
  646W        W 2054   3.099   0.984   8.409 -0.2308  0.5522 -0.0091
  647W        W 2055   0.446   5.101   0.891 -0.0158 -0.1965 -0.1005
  648W        W 2056   3.337   3.843   1.214 -0.1650 -0.0796 -0.0548
  649W        W 2057   3.380   5.852   7.511 -0.0598 -0.0460  0.0436
  650W        W 2058   2.715   1.890   0.691  0.0040 -0.0114  0.1633
  651W        W 2059   0.599   0.695   7.535 -0.1277 -0.2103 -0.0042
  652W        W 2060   3.889   4.777   0.249  0.0355  0.1641  0.0981
  653W        W 2061   5.737   2.382   0.634  0.5361 -0.1122  0.0870
  654W        W 2062   0.785   1.361   6.948  0.1087 -0.1491 -0.1628
  655W        W 2063   1.380   3.149   2.578  0.1296 -0.3675  0.1748
  656W        W 2064   6.221   2.712   1.949  0.0156 -0.0910 -0.0632
  657W        W 2065   1.916   2.570   6.586  0.4230  0.2014  0.0740
  658W        W 2066   0.502   1.784   1.540 -0.4193 -0.0061 -0.0313
  659W        W 2067   3.495   2.938   1.407 -0.1536 -0.0991 -0.0904
  660W        W 2068   1.247   1.037   7.761 -0.0132 -0.0473  0.0587
  661W        W 2069   6.487   5.801   8.653 -0.2738  0.0650 -0.0695
  662W        W 2070   3.136   1.443   7.828 -0.1583 -0.2169 -0.0077
  663W        W 2071   0.742   5.853   6.811 -0.2108 -0.0108 -0.1324
  664W        W 2072   5.426   5.727   6.770 -0.0769  0.2049 -0.3097
  665W        W 2073   1.236   3.778   7.488  0.1015 -0.1181 -0.2111
  666W        W 2074   4.837   2.202   7.611  0.2102 -0.0587 -0.1928
  667W        W 2075   5.455   4.398   6.264  0.1688 -0.1022 -0.0316
  668W        W 2076   2.073   3.730   1.509  0.2098  0.2613  0.2997
  669W        W 2077   1.308   4.561   2.862  0.0518  0.3708  0.1703
  670W        W 2078   1.366   1.614   7.087 -0.3275 -0.0263  0.0047
  671W        W 2079   2.048   5.016   8.575 -0.0241 -0.1217  0.0365
  672W        W 2080   1.577   4.635   8.577 -0.1403 -0.2974  0.1251
  673W        W 2081   3.259   0.185   0.983  0.1067 -0.1067 -0.1809
  674W        W 2082   1.140   6.464   1.525 -0.1005  0.2117  0.0861
  675W        W 2083   4.834   1.574   2.482 -0.4126  0.2480 -0.0010
  676W        W 2084   0.230   0.013   8.249 -0.0551  0.2826 -0.1411
  677W        W 2085   3.099   1.433   1.769 -0.2380 -0.3641 -0.2306
  678W        W 2086   1.249   6.144   0.610 -0.0898 -0.5101  0.3375
  679W        W 2087   4.253   1.757   7.561 -0.0406  0.2251  0.0180
  680W        W 2088   5.344   4.483   8.590 -0.0025  0.1944 -0.0093
  681W        W 2089   0.877   0.302   7.561 -0.1371  0.2443  0.0519
  682W        W 2090   2.092   2.508   0.504  0.2960 -0.1779 -0.0914
  683W        W 2091   5.555   2.146   7.141  0.3767 -0.0047  0.0839
  684W        W 2092   4.589   5.867   7.671  0.0657 -0.3137  0.0659
  685W        W 2093   3.090   1.958   7.650 -0.0138  0.2649 -0.0525
  686W        W 2094   0.024   2.647   0.065  0.0046 -0.2226 -0.1128
  687W        W 2095   6.115   1.786   2.462 -0.2852  0.0830  0.1229
  688W        W 2096   5.662   3.342   2.022 -0.4890  0.4230 -0.4174
  689W        W 2097   1.007   2.964   6.436  0.0457  0.0190 -0.0166
  690W        W 2098   6.202   4.394   1.081  0.0250  0.1469  0.0730
  691W        W 2099   2.549   4.786   0.962 -0.0978 -0.0482  0.0557
  692W        W 2100   1.481   5.297   8.401 -0.1509  0.1899  0.0713
  693W        W 2101   0.341   6.243   2.799 -0.2048 -0.1406  0.4215
  694W        W 2102   4.357   5.995   1.953 -0.0731  0.0599  0.2034
  695W        W 2103   1.618   5.723   1.430  0.2413  0.0736 -0.1621
  696W        W 2104   3.206   4.702   6.870 -0.1302 -0.1432 -0.0415
  697W        W 2105   5.258   1.908   7.533  0.2103  0.1089  0.5340
  698W        W 2106   2.414   1.653   1.017  0.0200 -0.2950 -0.2785
  699W        W 2107   5.177   0.405   2.190 -0.0544  0.0677  0.0111
  700W        W 2108   6.483   2.106   1.310  0.0098 -0.4236  0.5934
  701W        W 2109   0.885   2.495   7.593  0.3218  0.0211 -0.2213
  702W        W 2110   4.854   6.315   8.659  0.0948  0.2158  0.4406
  703W        W 2111   4.132   5.781   2.353  0.2352 -0.1168  0.0745
  704W        W 2112   2.976   2.999   7.170  0.0684  0.1870  0.2654
  705W        W 2113   6.470   1.931   6.536  0.2128  0.0049  0.1652
  706W        W 2114   4.551   1.908   7.174  0.2923  0.0430  0.2090
  707W        W 2115   3.461   1.314   8.618  0.1208 -0.1332  0.2325
  708W        W 2116   5.576   3.025   1.117 -0.2905 -0.3727  0.2388
  709W        W 2117   0.282   1.247   6.835  0.1762 -0.2784  0.2029
  710W        W 2118   2.891   2.598   0.932  0.0692 -0.1819 -0.0531
  711W        W 2119   2.811   1.639   1.435  0.4856 -0.2243  0.0699
  712W        W 2120   6.396   0.989   5.965 -0.1046 -0.1761 -0.1998
  713W        W 2121   1.020   3.468   7.150  0.1475 -0.0450 -0.0367
  714W        W 2122   2.762   4.353   1.780  0.1099  0.0932  0.0386
  715W        W 2123   0.334   5.521   2.162 -0.2710 -0.0655 -0.4508
  716W        W 2124   0.454   0.819   0.106  0.0568  0.0974 -0.0678
  717W        W 2125   6.212   1.371   8.571  0.2362  0.1555 -0.1637
  718W        W 2126   1.853   4.121   5.904  0.1991 -0.0368  0.3143
  719W        W 2127   1.170   5.226   0.272  0.0512  0.1089  0.1147
  720W        W 2128   4.934   4.711   2.298  0.0102  0.1506 -0.2813
  721W        W 2129   2.824   3.658   7.802 -0.0061  0.2128 -0.3044
  722W        W 2130   3.741   5.618   6.737  0.0740 -0.4019  0.0662
  723W        W 2131   1.893   3.544   7.345  0.0420 -0.0551  0.1435
  724W        W 2132   0.127   1.344   0.149  0.2022  0.2962  0.4254
  725W        W 2133   0.497   2.273   2.334 -0.1686 -0.2749 -0.2062
  726W        W 2134   2.224   6.306   8.673  0.0864  0.0479 -0.0712
  727W        W 2135   3.974   5.159   0.621 -0.2406  0.4067  0.0755
  728W        W 2136   3.543   1.504   8.072  0.0763  0.1972  0.3266
  729W        W 2137   1.145   0.129   8.395  0.0837 -0.2112 -0.1176
  730W        W 2138   5.784   2.486   8.332 -0.4242  0.0657  0.1339
  731W        W 2139   0.176   0.970   0.544  0.2784  0.0788  0.0055
  732W        W 2140   2.357   3.551   7.177 -0.0774 -0.0496  0.3817
  733W        W 2141   2.200   2.506   2.380  0.2148 -0.1097 -0.1353
  734W        W 2142   2.353   1.101   2.432  0.0844 -0.1174  0.1618
  735W        W 2143   0.683   3.187   1.164 -0.0623 -0.3176 -0.0771
  736W        W 2144   1.631   2.390   0.116  0.2157 -0.0739  0.0543
  737W        W 2145   1.369   6.030   0.112  0.0843  0.1852 -0.4380
  738W        W 2146   0.245   3.942   0.616  0.0756 -0.0251  0.2771
  739W        W 2147   4.000   5.626   0.392  0.1250 -0.1270  0.2453
  740W        W 2148   6.383   0.364   8.613 -0.2635 -0.0792  0.1049
  741W        W 2149   3.867   0.292   2.455 -0.3665  0.3213  0.2023
  742W        W 2150   4.476   1.972   0.093 -0.0568  0.2755  0.0490
  743W        W 2151   3.697   3.059   6.863  0.4475 -0.0076  0.0513
  744W        W 2152   5.649   0.399   6.854 -0.0462  0.2041  0.1477
  745W        W 2153   4.431   6.144   8.465  0.1457  0.1481 -0.3041
  746W        W 2154   6.002   2.916   0.712  0.1012 -0.3181 -0.0822
  747W        W 2155   4.302   3.747   0.904 -0.2635 -0.3485 -0.1635
  748W        W 2156   4.843   0.387   1.348  0.2141  0.0308  0.1580
  749W        W 2157   3.417   0.156   2.237 -0.1515 -0.0093  0.0949
  750W        W 2158   4.582   0.369   0.959  0.2181 -0.2113 -0.2206
  751W        W 2159   1.911   1.689   0.903 -0.1090 -0.4033  0.0870
  752W        W 2160   1.222   5.221   0.976 -0.4229  0.0011 -0.1893
  753W        W 2161   5.265   4.147   0.769  0.2662  0.0272  0.0500
  754W        W 2162   5.235   5.048   0.272 -0.0288 -0.0794  0.5365
  755W        W 2163   0.168   2.492   6.571 -0.1214 -0.2022 -0.1967
  756W        W 2164   0.044   1.464   6.370 -0.0057 -0.2958 -0.0787
  757W        W 2165   1.059   5.553   8.197  0.1120 -0.3184  0.0618
  758W        W 2166   2.642   4.810   2.575  0.1475 -0.1987 -0.0241
  759W        W 2167   2.945   1.126   6.605 -0.0260 -0.1830  0.0429
  760W        W 2168   6.181   1.179   6.421  0.2970 -0.1699  0.0628
  761W        W 2169   2.920   3.641   1.182 -0.0140  0.1821 -0.0401
  762W        W 2170   1.622   5.401   6.841 -0.0026  0.1045  0.0193
  763W        W 2171   5.405   0.080   7.784  0.1517 -0.3221  0.1406
  764W        W 2172   3.897   3.331   8.604  0.0728 -0.0831 -0.1200
  765W        W 2173   4.918   0.559   6.206 -0.1587 -0.0938  0.2379
  766W        W 2174   0.397   2.319   1.537  0.1161 -0.2777 -0.4134
  767W        W 2175   0.642   4.571   0.954  0.0041  0.2206 -0.1421
  768W        W 2176   3.126   3.931   1.666  0.2281  0.1428 -0.0291
  769W        W 2177   1.069   1.370   0.630  0.3012  0.1113 -0.0921
  770W        W 2178   3.970   3.877   8.735  0.2469 -0.2848  0.0090
  771W        W 2179   5.243   4.804   1.259  0.1261  0.2060 -0.2075
  772W        W 2180   1.914   5.052   1.432 -0.0798 -0.1327  0.3254
  773W        W 2181   5.020   3.828   7.882  0.0370 -0.0555  0.0395
  774W        W 2182   6.415   2.586   1.480 -0.0428  0.2273  0.2031
  775W        W 2183   2.745   2.209   8.006 -0.3446 -0.0276  0.0662
  776W        W 2184   4.431   1.545   0.325 -0.0944  0.2198  0.0238
  777W        W 2185   0.859   3.040   1.596 -0.4751  0.0131 -0.1410
  778W        W 2186   3.627   3.723   8.293  0.0852 -0.3060  0.1474
  779W        W 2187   0.638   3.253   6.910 -0.5323  0.1653 -0.0096
  780W        W 2188   5.903   3.713   7.573 -0.2385 -0.3161 -0.1033
  781W        W 2189   1.257   3.166   7.475 -0.2351 -0.2168  0.0984
  782W        W 2190   2.373   5.800   8.618 -0.1188 -0.0650  0.2718
  783W        W 2191   5.937   5.697   7.808  0.0585 -0.0599  0.1520
  784W        W 2192   5.335   3.126   1.646 -0.1825 -0.1185  0.3106
  785W        W 2193   2.541   5.378   6.828  0.1074 -0.0023  0.2407
  786W        W 2194   0.632   0.073   1.322 -0.4825  0.0301 -0.2921
  787W        W 2195   3.489   6.287   8.323 -0.1417 -0.0918 -0.1657
  788W        W 2196   5.868   0.860   0.529 -0.0333  0.2184  0.1306
  789W        W 2197   6.205   0.480   1.046 -0.1195 -0.0674  0.0890
  790W        W 2198   3.166   0.022   1.424  0.0644  0.3942  0.2319
  791W        W 2199   6.006   6.180   7.290  0.3431  0.1759  0.0292
  792W        W 2200   5.346   3.021   8.580  0.3290 -0.0426 -0.0194
  793W        W 2201   1.077   1.818   2.710 -0.0658  0.4357 -0.0117
  794W        W 2202   1.159   4.662   7.857 -0.2796 -0.0867 -0.1462
  795W        W 2203   0.903   6.008   1.492 -0.2994 -0.1429 -0.0547
  796W        W 2204   0.288   2.159   5.615  0.2471 -0.2130 -0.0496
  797W        W 2205   2.801   2.837   7.745  0.0671 -0.2517 -0.1744
  798W        W 2206   0.458   3.869   7.946 -0.2292 -0.2059 -0.0680
  799W        W 2207   5.438   1.263   1.986  0.0293 -0.2303  0.0641
  800W        W 2208   6.201   3.297   2.034  0.0854 -0.1118 -0.2016
  801W        W 2209   3.824   0.357   8.591  0.0074  0.1967 -0.1719
  802W        W 2210   0.799   3.288   7.632 -0.2696 -0.1656  0.0488
  803W        W 2211   3.308   0.040   7.122  0.1357  0.3799  0.1910
  804W        W 2212   2.762   2.421   1.769  0.0867 -0.1901  0.2805
  805W        W 2213   3.608   2.636   0.224 -0.2397 -0.0940 -0.1349
  806W        W 2214   5.012   5.670   7.702 -0.0974  0.0878 -0.2184
  807W        W 2215   2.165   1.330   7.059 -0.2323 -0.0296 -0.0263
  808W        W 2216   4.659   0.265   8.772 -0.3267  0.0145 -0.0869
  809W        W 2217   1.059   1.422   1.656  0.2077  0.3543  0.0170
  810W        W 2218   0.323   5.023   2.155 -0.0244  0.0669 -0.1962
  811W        W 2219   5.192   3.112   8.115  0.1201  0.2455 -0.1503
  812W        W 2220   5.350   2.372   7.775  0.0933 -0.1592 -0.1794
  813W        W 2221   4.670   1.354   7.197  0.2697  0.0096 -0.3564
  814W        W 2222   2.913   3.738   8.673  0.2600 -0.0007  0.0769
  815W        W 2223   1.468   5.263   7.762  0.0106  0.1123  0.3830
  816W        W 2224   4.338   2.304   7.604 -0.1464  0.1320  0.0491
  817W        W 2225   0.471   6.138   7.098 -0.2976 -0.0937  0.1948
  818W        W 2226   3.206   2.482   6.469  0.0976 -0.0491 -0.2607
  819W        W 2227   5.061   5.445   8.788 -0.2335 -0.0298  0.0617
  820W        W 2228   6.251   4.037   8.488  0.0122  0.1062 -0.3659
  821W        W 2229   0.483   5.611   1.050 -0.2367 -0.0662  0.0195
  822W        W 2230   4.990   3.197   0.567  0.2125 -0.5135 -0.1016
  823W        W 2231   0.903   4.732   6.112  0.1962 -0.3148 -0.0131
  824W        W 2232   1.981   2.022   1.745  0.0101  0.2243  0.2932
  825W        W 2233   1.754   3.004   7.688  0.2193 -0.2280 -0.0299
  826W        W 2234   1.779   2.539   2.070 -0.1471  0.0899  0.0981
  827W        W 2235   4.013   1.046   7.908  0.3914  0.1309 -0.3462
  828W        W 2236   6.171   3.446   8.279 -0.2858  0.2786  0.3512
  829W        W 2237   0.824   0.318   0.853 -0.1501  0.0649  0.0633
  830W        W 2238   0.417   3.322   6.453  0.0029  0.1260 -0.0872
  831W        W 2239   0.967   4.791   6.838  0.0741 -0.0826  0.1005
  832W        W 2240   5.717   5.446   0.314  0.0715 -0.1627  0.2557
  833W        W 2241   3.078   4.177   2.139  0.2421 -0.1558 -0.1503
  834W        W 2242   2.101   6.011   1.356  0.0903  0.0789  0.3003
  835W        W 2243   4.346   4.306   1.043 -0.0333  0.0733  0.0387
  836W        W 2244   6.041   2.888   1.212  0.0710 -0.1412 -0.1027
  837W        W 2245   4.718   4.010   0.858 -0.1192  0.1036 -0.4635
  838W        W 2246   4.904   3.732   8.775 -0.0393 -0.1242  0.3934
  839W        W 2247   2.078   6.307   0.354 -0.2154 -0.0404  0.2462
  840W        W 2248   1.348   1.829   0.937 -0.1989 -0.0268 -0.0707
  841W        W 2249   2.198   6.463   1.291 -0.1388 -0.3903  0.1326
  842W        W 2250   0.137   1.830   7.562  0.1315  0.3242 -0.1428
  843W        W 2251   3.729   1.243   7.245  0.1636 -0.2547 -0.2544
  844W        W 2252   2.646   3.922   7.363  0.0811  0.0240  0.1905
  845W        W 2253   1.504   4.827   7.541 -0.0613  0.2010  0.2004
  846W        W 2254   3.364   2.060   7.155  0.2383 -0.0733 -0.1896
  847W        W 2255   1.820   4.719   6.707  0.2846 -0.2070 -0.2083
  848W        W 2256   1.746   5.341   1.073 -0.0345 -0.2167 -0.0279
  849W        W 2257   0.276   2.158   8.421 -0.2667 -0.1889  0.1084
  850W        W 2258   2.087   1.646   1.406  0.0675 -0.1619 -0.0789
  851W        W 2259   4.140   4.437   6.821  0.0788  0.3175 -0.1770
  852W        W 2260   2.397   5.401   1.969  0.0375  0.0895  0.0545
  853W        W 2261   0.301   0.588   8.548 -0.0491 -0.4086  0.3037
  854W        W 2262   5.749   0.044   1.625  0.0468  0.0898 -0.0835
  855W        W 2263   0.325   2.777   8.520  0.0248  0.0008 -0.1042
  856W        W 2264   5.776   0.604   2.655  0.0776  0.2112  0.2401
  857W        W 2265   5.266   5.642   0.925  0.2615 -0.1492 -0.2978
  858W        W 2266   4.799   5.943   8.112  0.1750  0.1446 -0.1188
  859W        W 2267   1.748   5.986   0.549  0.1080 -0.1356  0.2948
  860W        W 2268   2.963   2.965   1.664 -0.1182 -0.1248 -0.1452
  861W        W 2269   2.191   2.435   8.802  0.0826  0.0213  0.0863
  862W        W 2270   4.636   6.289   0.601  0.1269 -0.0700 -0.2936
  863W        W 2271   4.389   2.923   2.789  0.1676 -0.1239 -0.0532
  864W        W 2272   5.882   4.870   1.098 -0.2025  0.1705 -0.0059
  865W        W 2273   0.459   1.835   8.088  0.1993  0.3723 -0.1950
  866W        W 2274   4.157   5.326   6.953  0.1142  0.0036  0.1889
  867W        W 2275   1.845   4.170   6.709 -0.0297 -0.2127  0.2174
  868W        W 2276   3.295   3.358   8.646  0.1654 -0.0111  0.1716
  869W        W 2277   4.386   6.413   0.099 -0.2307  0.2083 -0.1846
  870W        W 2278   5.932   5.233   8.097  0.3772 -0.1153 -0.0886
  871W        W 2279   1.256   4.267   0.517 -0.1339 -0.1364  0.0311
  872W        W 2280   4.883   5.928   1.875  0.0121  0.2628  0.0598
  873W        W 2281   5.514   2.831   0.640 -0.0370  0.2174 -0.0672
  874W        W 2282   0.967   2.993   2.107  0.0264 -0.1170  0.2075
  875W        W 2283   5.292   3.504   6.663  0.0653  0.3000  0.0918
  876W        W 2284   5.936   3.434   0.042 -0.0795 -0.0364  0.0042
  877W        W 2285   5.529   6.051   2.571 -0.1033 -0.1757 -0.0992
  878W        W 2286   5.539   2.501   8.731 -0.1641  0.1552  0.2621
  879W        W 2287   2.622   3.702   6.412  0.0739  0.1430 -0.0059
  880W        W 2288   0.308   4.524   8.159  0.3386  0.2073 -0.1106
  881W        W 2289   5.592   0.019   7.337  0.0229  0.1173 -0.1086
  882W        W 2290   5.722   1.717   1.782 -0.1645  0.1771 -0.0424
  883W        W 2291   0.254   5.739   6.741 -0.0058 -0.2310 -0.0556
  884W        W 2292   0.520   1.689   6.478 -0.1417 -0.0457 -0.0244
  885W        W 2293   4.722   0.619   6.681  0.2711  0.0363 -0.1135
  886W        W 2294   2.871   0.935   1.669 -0.3723  0.5228 -0.2040
  887W        W 2295   3.279   1.541   6.951  0.2295 -0.0319  0.0258
  888W        W 2296   5.673   0.370   2.160  0.0682  0.1560  0.2106
  889W        W 2297   3.218   5.102   2.125 -0.2232 -0.1701 -0.3353
  890W        W 2298   2.248   5.349   8.142 -0.3494 -0.0782 -0.1465
  891W        W 2299   0.990   6.390   0.970  0.3888  0.0703  0.2790
  892W        W 2300   1.019   1.090   2.081 -0.1159 -0.1620  0.0581
  893W        W 2301   2.618   3.919   8.182  0.0299 -0.1311  0.0593
  894W        W 2302   4.974   4.227   6.759  0.2266 -0.1158  0.2849
  895W        W 2303   5.028   1.530   6.041 -0.1097  0.1558  0.1823
  896W        W 2304   1.339   3.385   2.069  0.0812  0.1586 -0.1376
  897W        W 2305   1.569   5.573   0.091  0.1141  0.0020  0.0903
  898W        W 2306   0.017   6.400   2.416 -0.1033  0.0171 -0.0612
  899W        W 2307   4.070   5.121   3.032  0.3377  0.1817 -0.0740
  900W        W 2308   3.717   4.617   1.536 -0.0798  0.0964  0.1860
  901W        W 2309   1.561   4.066   2.326 -0.0447 -0.3774 -0.5388
  902W        W 2310   4.889   4.423   1.017  0.2656 -0.1854  0.4198
  903W        W 2311   4.907   2.199   1.802  0.2740  0.0460  0.0244
  904W        W 2312   0.017   1.389   7.338 -0.2520  0.0239  0.3337
  905W        W 2313   6.228   3.628   0.494  0.1416 -0.0894  0.1405
  906W        W 2314   2.768   3.163   8.460 -0.4587 -0.3005  0.3862
  907W        W 2315   5.539   5.731   8.779 -0.2382 -0.0333 -0.1920
  908W        W 2316   0.417   3.141   0.704 -0.1608  0.0221  0.1604
  909W        W 2317   4.531   6.385   7.990  0.1412  0.1402  0.0694
  910W        W 2318   2.878   0.503   0.839 -0.0892 -0.2732 -0.2684
  911W        W 2319   4.975   3.255   0.066 -0.1654  0.0997 -0.0484
  912W        W 2320   6.230   3.820   0.974 -0.1034  0.1248  0.0909
  913W        W 2321   6.374   1.188   2.053 -0.0636  0.0093  0.1477
  914W        W 2322   6.262   0.869   8.503 -0.0924  0.1541 -0.2344
  915W        W 2323   1.491   3.488   7.041 -0.1799  0.0860  0.1743
  916W        W 2324   5.930   4.116   1.464 -0.3724  0.2866 -0.1556
  917W        W 2325   2.599   5.962   6.756 -0.3186 -0.0383  0.0072
  918W        W 2326   3.112   3.740   6.491 -0.3026  0.2593  0.4997
  919W        W 2327   4.464   2.001   8.019 -0.0618 -0.2036 -0.4180
  920W        W 2328   2.823   0.204   6.821 -0.0281  0.2141  0.1779
  921W        W 2329   2.268   5.394   7.324 -0.0594 -0.2329  0.0057
  922W        W 2330   6.154   2.983   0.240 -0.0399 -0.0747  0.2494
  923W        W 2331   2.382   0.406   1.076 -0.2180  0.0665 -0.0188
  924W        W 2332   4.701   1.601   0.766 -0.0576 -0.0516  0.4157
  925W        W 2333   6.288   4.447   2.348 -0.2794  0.2918  0.0733
  926W        W 2334   1.618   3.906   0.854  0.0893 -0.3076  0.0637
  927W        W 2335   5.258   5.869   6.046  0.0647  0.3106  0.0337
  928W        W 2336   4.760   4.713   7.479 -0.2184 -0.1947 -0.0592
  929W        W 2337   3.707   5.876   0.065  0.0529 -0.0731  0.1122
  930W        W 2338   4.773   5.124   8.387 -0.1019  0.0658 -0.0490
  931W        W 2339   5.698   3.979   1.060 -0.0683 -0.0133 -0.0445
  932W        W 2340   1.326   6.031   1.767  0.2486  0.3850  0.2322
  933W        W 2341   3.078   1.168   0.062 -0.1900 -0.2087 -0.1793
  934W        W 2342   2.172   6.076   6.514  0.0318 -0.2347  0.0958
  935W        W 2343   5.069   2.758   1.233 -0.0085 -0.1087 -0.1533
  936W        W 2344   0.706   2.635   1.878 -0.1325 -0.0832 -0.3139
  937W        W 2345   5.761   0.508   6.365 -0.3056 -0.1469 -0.0173
  938W        W 2346   5.701   1.143   1.532  0.1254 -0.0020  0.0042
  939W        W 2347   3.266   2.917   0.921  0.0656 -0.0693 -0.0629
  940W        W 2348   0.567   1.121   7.258 -0.2724 -0.1021  0.1149
  941W        W 2349   4.188   2.006   0.512  0.3454  0.1822 -0.2131
  942W        W 2350   4.886   1.200   8.347  0.0144 -0.1712  0.1355
  943W        W 2351   2.520   2.712   7.350  0.3055  0.2706 -0.2150
  944W        W 2352   2.385   4.806   1.499 -0.1126 -0.1702 -0.1102
  945W        W 2353   1.866   0.386   7.124 -0.1281 -0.5003 -0.0946
  946W        W 2354   1.229   1.361   0.172  0.0963 -0.2404  0.0777
  947W        W 2355   0.915   4.900   0.645  0.1395 -0.0736  0.1850
  948W        W 2356   5.591   2.102   8.098  0.2931 -0.1600  0.2325
  949W        W 2357   2.163   3.116   7.375 -0.2864  0.2432  0.2010
  950W        W 2358   1.786   3.596   2.307 -0.0674 -0.1258 -0.2132
  951W        W 2359   6.503   6.339   8.653 -0.1427  0.0548 -0.0940
  952W        W 2360   4.472   5.305   0.726 -0.0181  0.0635 -0.0812
  953W        W 2361   5.124   4.703   1.807 -0.2834 -0.1247  0.0061
  954W        W 2362   5.682   5.896   0.842  0.0751  0.4159  0.0679
  955W        W 2363   4.738   4.776   1.486  0.2142 -0.0665  0.3998
  956W        W 2364   4.553   1.308   1.102 -0.2043 -0.1356 -0.1417
  957W        W 2365   1.758   6.268   0.997 -0.0854  0.1255 -0.1788
  958W        W 2366   3.367   5.777   1.832 -0.1158 -0.0890 -0.3768
  959W        W 2367   0.015   3.038   1.679  0.0311  0.0647  0.4150
  960W        W 2368   5.729   3.970   2.000 -0.2603 -0.0366  0.0531
  961W        W 2369   3.858   1.527   7.705  0.1117  0.1001  0.4381
  962W        W 2370   0.214   0.460   1.184 -0.2307  0.2449  0.2221
  963W        W 2371   0.149   2.121   1.924 -0.0643 -0.1565  0.1030
  964W        W 2372   3.198   3.170   7.715 -0.0427  0.1237  0.3292
  965W        W 2373   2.596   2.046   7.549 -0.0098  0.1591  0.0598
  966W        W 2374   3.548   5.264   2.517 -0.1221 -0.0589 -0.2683
  967W        W 2375   2.945   4.518   8.456 -0.0927 -0.1845 -0.0402
  968W        W 2376   5.081   3.528   1.697 -0.0670  0.1283 -0.0242
  969W        W 2377   4.651   0.507   8.276 -0.0447  0.0354  0.2062
  970W        W 2378   0.720   6.379   8.202 -0.1430  0.1419  0.1867
  971W        W 2379   1.467   4.449   1.556  0.1086 -0.1033 -0.3446
  972W        W 2380   3.878   0.185   7.608 -0.2122 -0.2655 -0.0203
  973W        W 2381   6.465   0.372   2.234 -0.2042  0.0061  0.1400
  974W        W 2382   6.475   3.048   0.622  0.0994 -0.1753  0.3339
  975W        W 2383   4.475   3.891   7.884 -0.2165  0.4002  0.2425
  976W        W 2384   0.184   1.624   8.455  0.1794 -0.0599  0.0538
  977W        W 2385   2.981   2.800   0.416 -0.3068 -0.1139 -0.1111
  978W        W 2386   5.070   3.833   1.194  0.0074  0.0019  0.2858
  979W        W 2387   3.348   1.640   0.633 -0.0063 -0.2176  0.0378
  980W        W 2388   4.592   0.891   1.383  0.0035  0.0253  0.1202
  981W        W 2389   6.375   5.602   0.398 -0.1700 -0.3167  0.2054
  982W        W 2390   3.791   6.268   0.920  0.0693  0.0983  0.0947
  983W        W 2391   0.281   5.260   1.335  0.2433  0.0166 -0.1698
  984W        W 2392   2.860   1.389   2.755 -0.1686  0.2695  0.1287
  985W        W 2393   0.464   3.081   1.969 -0.4577 -0.2384  0.0731
  986W        W 2394   3.683   2.909   2.397  0.1296 -0.4644  0.3747
  987W        W 2395   5.318   0.740   6.479 -0.0274 -0.1547  0.0406
  988W        W 2396   2.466   4.374   1.288  0.1717  0.0398  0.0103
  989W        W 2397   4.201   0.031   0.728 -0.0466 -0.0377 -0.0281
  990W        W 2398   4.708   0.257   7.053  0.1220 -0.1135  0.1541
  991W        W 2399   1.013   1.599   2.149 -0.2097 -0.0012  0.1572
  992W        W 2400   3.075   3.906   2.515 -0.5405 -0.2584 -0.0028
  993W        W 2401   3.595   4.238   8.478 -0.0177 -0.2598  0.1603
  994W        W 2402   2.924   3.105   1.186 -0.0507  0.0443 -0.0371
  995W        W 2403   4.708   1.404   1.607 -0.0898  0.3223 -0.1922
  996W        W 2404   1.460   1.200   1.872  0.6551  0.1520  0.1991
  997W        W 2405   4.371   3.097   1.841 -0.1809 -0.2273  0.0416
  998W        W 2406   5.453   1.706   6.838  0.1558  0.0719 -0.1530
  999W        W 2407   0.420   4.173   6.601 -0.1517  0.0494 -0.0280
 1000W        W 2408   4.916   5.968   0.164 -0.1070 -0.0327 -0.1608
 1001W        W 2409   1.883   5.926   8.817  0.1840  0.1943  0.3209
 1002W        W 2410   0.840   4.464   0.442 -0.1284 -0.0264 -0.1953
 1003W        W 2411   5.666   5.992   1.665 -0.2131  0.0686 -0.2053
 1004W        W 2412   3.974   0.710   6.240 -0.0118  0.0740 -0.2196
 1005W        W 2413   0.082   6.022   8.226  0.0710  0.2141 -0.3010
 1006W        W 2414   3.162   2.571   1.396 -0.0939 -0.0848 -0.0061
 1007W        W 2415   2.982   6.434   1.906  0.3031 -0.2806  0.0890
 1008W        W 2416   1.857   0.351   1.260  0.0409 -0.0361  0.0671
 1009W        W 2417   5.127   1.153   1.492  0.0289 -0.2945  0.0865
 1010W        W 2418   5.677   4.318   7.851 -0.1207  0.0805  0.0466
 1011W        W 2419   0.927   4.260   7.569  0.0130 -0.2654 -0.1957
 1012W        W 2420   5.810   1.419   0.626 -0.0508  0.1133 -0.1449
 1013W        W 2421   5.001   2.378   6.597  0.0270  0.1505 -0.0556
 1014W        W 2422   3.704   1.350   1.630 -0.3693 -0.1542  0.1513
 1015W        W 2423   2.834   0.913   0.467 -0.2494  0.1414 -0.0501
 1016W        W 2424   0.718   1.922   7.510  0.3025 -0.0040 -0.0771
 1017W        W 2425   1.628   0.091   0.499 -0.0801 -0.1355  0.2191
 1018W        W 2426   1.282   2.671   1.835 -0.1802 -0.0487  0.0040
 1019W        W 2427   1.929   3.870   6.337  0.1792 -0.2624  0.2613
 1020W        W 2428   0.931   2.051   2.286 -0.1064  0.3167  0.0755
 1021W        W 2429   0.031   4.831   2.634  0.1404 -0.0049 -0.0296
 1022W        W 2430   2.477   0.351   0.572  0.1551 -0.0217  0.2088
 1023W        W 2431   0.484   3.305   8.037  0.0137  0.1670 -0.0376
 1024W        W 2432   4.392   5.048   1.760 -0.0136  0.0514  0.0895
 1025W        W 2433   3.675   2.278   8.182  0.1142  0.0749 -0.1156
 1026W        W 2434   1.952   1.179   1.579 -0.0301  0.0059  0.0224
 1027W        W 2435   1.592   0.358   2.234  0.0876 -0.0190  0.0418
 1028W        W 2436   2.957   6.486   8.143 -0.0600  0.1359 -0.5101
 1029W        W 2437   1.505   3.107   6.717 -0.2575 -0.2804 -0.0317
 1030W        W 2438   3.771   2.395   0.604  0.3824 -0.2703 -0.0661
 1031W        W 2439   1.943   6.274   7.459 -0.0943  0.0641 -0.1736
 1032W        W 2440   4.165   3.361   8.069 -0.1361 -0.2517 -0.1364
 1033W        W 2441   3.836   1.290   6.770  0.0953 -0.2012  0.1083
 1034W        W 2442   1.374   2.258   2.135 -0.0791 -0.0217 -0.0808
 1035W        W 2443   1.208   2.168   7.073 -0.3963  0.2204  0.2633
 1036W        W 2444   6.315   3.365   7.446 -0.0049  0.0432 -0.5288
 1037W        W 2445   4.361   1.977   1.028  0.0521  0.2958 -0.0058
 1038W        W 2446   1.090   2.842   1.075 -0.1156 -0.0919 -0.0287
 1039W        W 2447   3.435   5.795   8.029  0.0923 -0.2636 -0.0488
 1040W        W 2448   4.194   2.453   8.121  0.3380  0.1375  0.0203
 1041W        W 2449   1.313   3.327   0.376  0.0226  0.0101 -0.1408
 1042W        W 2450   3.230   3.343   6.934  0.0874 -0.0685 -0.1883
 1043W        W 2451   0.891   4.079   7.109 -0.0141  0.1804 -0.0894
 1044W        W 2452   6.269   0.519   0.537 -0.0883  0.2428  0.1260
 1045W        W 2453   6.034   0.202   7.177  0.0975 -0.2393  0.5328
 1046W        W 2454   5.320   2.631   1.625  0.1089  0.1832 -0.1186
 1047W        W 2455   4.846   3.623   7.481  0.0631  0.1610 -0.2207
 1048W        W 2456   4.866   4.609   8.302 -0.3003 -0.1167  0.2466
 1049W        W 2457   2.843   1.823   1.960 -0.0090  0.1593 -0.1294
 1050W        W 2458   5.663   4.020   6.575  0.0302  0.0081  0.0826
 1051W        W 2459   4.314   4.737   0.812 -0.2215  0.0638 -0.2224
 1052W        W 2460   3.837   2.245   7.300 -0.1905 -0.0138  0.0765
 1053W        W 2461   1.831   1.956   0.330 -0.0959 -0.2082  0.1838
 1054W        W 2462   2.498   0.244   1.645  0.2154  0.1440 -0.0154
 1055W        W 2463   2.996   3.651   0.368 -0.0804  0.0353 -0.0628
 1056W        W 2464   2.287   2.880   8.509  0.2844 -0.1127  0.3480
 1057W        W 2465   1.429   3.400   7.953  0.1412 -0.3898 -0.0413
 1058W        W 2466   0.880   2.935   2.661  0.1862  0.2845  0.2260
 1059W        W 2467   3.562   2.364   1.170 -0.0028 -0.0702 -0.2452
 1060W        W 2468   2.851   5.700   7.152 -0.0031  0.1164  0.3759
 1061W        W 2469   2.806   5.266   0.194 -0.2675 -0.2066 -0.0931
 1062W        W 2470   1.170   0.421   0.502  0.1355 -0.3258  0.1223
 1063W        W 2471   0.937   3.210   0.747 -0.0832 -0.0034 -0.1122
 1064W        W 2472   5.377   3.467   2.543 -0.1413 -0.1024 -0.0466
 1065W        W 2473   6.184   4.120   7.579  0.1402  0.0772  0.1637
 1066W        W 2474   5.792   0.158   8.632 -0.1167  0.1004 -0.1782
 1067W        W 2475   2.428   4.411   6.861 -0.2731  0.0102  0.1956
 1068W        W 2476   0.927   3.757   7.943  0.1195 -0.1923  0.0023
 1069W        W 2477   0.270   6.328   7.807 -0.3227  0.2971  0.3193
 1070W        W 2478   1.702   2.556   8.017  0.0872 -0.0441  0.2918
 1071W        W 2479   3.945   2.628   8.616  0.1175 -0.0625  0.0679
 1072W        W 2480   5.571   5.591   1.355  0.2344 -0.0320  0.2597
 1073W        W 2481   3.419   1.663   7.458 -0.0892  0.3877  0.4105
 1074W        W 2482   3.070   2.054   1.499  0.1321  0.2143 -0.0348
 1075W        W 2483   4.568   2.910   0.025  0.0375 -0.0220  0.0100
 1076W        W 2484   5.278   3.579   0.809 -0.0238  0.0170  0.1787
 1077W        W 2485   2.557   4.309   0.754 -0.1012 -0.1154  0.0156
 1078W        W 2486   1.898   1.360   8.445 -0.2955 -0.0965  0.0279
 1079W        W 2487   1.079   3.301   8.350 -0.0335  0.0909 -0.2624
 1080W        W 2488   0.635   0.817   1.673 -0.0053 -0.1794  0.1566
 1081W        W 2489   1.274   4.731   0.225  0.1326  0.0970 -0.1156
 1082W        W 2490   4.163   4.766   7.666  0.2251 -0.0011 -0.0343
 1083W        W 2491   3.255   4.535   7.993 -0.1226  0.0080 -0.3555
 1084W        W 2492   0.169   2.994   6.698 -0.0600  0.1138  0.0833
 1085W        W 2493   0.050   3.790   7.444  0.1258 -0.1111 -0.0162
 1086W        W 2494   0.376   3.330   2.421  0.2750 -0.2023 -0.0617
 1087W        W 2495   3.283   4.936   8.274  0.0560 -0.0343  0.1442
 1088W        W 2496   0.121   4.938   1.670  0.2559  0.2020  0.2320
 1089W        W 2497   0.050   4.523   6.787  0.0775  0.4046  0.2521
 1090W        W 2498   1.605   2.839   1.279 -0.0182  0.0027 -0.1437
 1091W        W 2499   4.147   6.092   1.318  0.1123 -0.2044 -0.2346
 1092W        W 2500   1.916   6.300   6.980 -0.0225 -0.1634  0.0281
 1093W        W 2501   6.445   3.185   8.724  0.1719  0.1114 -0.1459
 1094W        W 2502   3.875   5.871   1.929  0.0124  0.2664 -0.0952
 1095W        W 2503   1.143   0.069   6.545 -0.0226  0.2299  0.0759
 1096W        W 2504   5.912   6.481   6.650  0.0210 -0.0394 -0.2041
 1097W        W 2505   1.661   2.394   1.573  0.2828 -0.1246 -0.2202
 1098W        W 2506   0.128   0.564   6.870 -0.2889  0.1371 -0.0089
 1099W        W 2507   1.321   0.559   7.614 -0.1053 -0.2682 -0.1769
 1100W        W 2508   6.459   1.739   0.368 -0.0995 -0.1010 -0.2062
 1101W        W 2509   5.782   0.972   8.604  0.0557 -0.3100  0.1697
 1102W        W 2510   4.074   6.302   1.718  0.2697 -0.1208 -0.0777
 1103W        W 2511   3.146   2.010   0.972  0.2053  0.3748 -0.0885
 1104W        W 2512   0.612   1.299   0.254 -0.3180 -0.3920 -0.0907
 1105W        W 2513   2.858   0.446   8.351  0.1227 -0.0816 -0.2815
 1106W        W 2514   0.658   5.920   7.582  0.2149  0.3244 -0.3374
 1107W        W 2515   1.373   1.894   6.282 -0.2998 -0.3269 -0.1153
 1108W        W 2516   4.018   2.707   6.749 -0.0167 -0.1436  0.2385
 1109W        W 2517   4.000   1.541   8.803  0.1464 -0.0212 -0.4344
 1110W        W 2518   4.440   2.731   1.361  0.0882  0.1081  0.3018
 1111W        W 2519   6.034   1.767   1.375  0.0270 -0.2274  0.3162
 1112W        W 2520   1.473   4.872   1.195  0.1149 -0.0587  0.0291
 1113W        W 2521   2.741   5.284   1.054  0.0272  0.1092  0.1608
 1114W        W 2522   2.411   0.160   8.224 -0.0717  0.2165  0.1999
 1115W        W 2523   6.247   3.267   6.417 -0.0893  0.1730 -0.2842
 1116W        W 2524   1.380   4.880   6.075  0.1662 -0.1494 -0.5121
 1117W        W 2525   5.120   5.912   8.508 -0.0288 -0.2369 -0.0875
 1118W        W 2526   5.417   3.864   1.590  0.4877  0.1787  0.0373
 1119W        W 2527   5.197   6.375   8.261 -0.1399 -0.0937 -0.1935
 1120W        W 2528   2.489   2.873   0.467 -0.0638  0.0874  0.3457
 1121W        W 2529   3.345   3.160   0.240  0.2333 -0.0860 -0.0072
 1122W        W 2530   2.438   1.871   6.612  0.1704  0.1420  0.1620
 1123W        W 2531   0.156   0.798   7.305 -0.2564  0.0133  0.3754
 1124W        W 2532   2.997   3.964   0.840 -0.3242  0.0099 -0.3334
 1125W        W 2533   2.041   2.698   7.143 -0.0277 -0.0216 -0.1431
 1126W        W 2534   3.698   4.459   6.513 -0.0931 -0.1790 -0.1391
 1127W        W 2535   1.626   0.745   1.861  0.1446 -0.0583  0.3192
 1128W        W 2536   2.384   0.619   8.486 -0.1675  0.0493 -0.0369
 1129W        W 2537   4.061   0.749   2.687  0.0201 -0.4539 -0.2082
 1130W        W 2538   5.607   5.146   1.523 -0.1294 -0.2168 -0.1765
 1131W        W 2539   2.495   5.001   7.597 -0.2916  0.4557 -0.3637
 1132W        W 2540   6.439   4.833   1.052  0.1196 -0.2183 -0.0896
 1133W        W 2541   6.193   3.601   7.068  0.1182 -0.2159  0.1814
 1134W        W 2542   0.722   0.776   1.126 -0.0790 -0.2244  0.0022
 1135W        W 2543   0.695   5.461   0.212 -0.2239  0.0555 -0.1506
 1136W        W 2544   3.582   0.630   7.823 -0.0532  0.1659  0.3115
 1137W        W 2545   1.168   1.852   1.392 -0.0797  0.0481 -0.1236
 1138W        W 2546   5.790   6.206   1.246  0.1563  0.2950  0.2905
 1139W        W 2547   5.302   4.494   8.080  0.0774  0.1046  0.2315
 1140W        W 2548   4.634   6.262   1.596  0.0073 -0.2969  0.2473
 1141W        W 2549   3.481   3.846   0.015  0.2361 -0.0193 -0.2191
 1142W        W 2550   2.436   6.404   6.775 -0.1483 -0.0018 -0.2636
 1143W        W 2551   6.235   5.636   8.195  0.2124 -0.1798 -0.2210
 1144W        W 2552   2.543   1.479   7.480  0.2836 -0.2256 -0.1516
 1145W        W 2553   0.460   2.395   8.826 -0.1009 -0.0529 -0.0448
 1146W        W 2554   5.925   4.044   7.071  0.1147 -0.0284 -0.1723
 1147W        W 2555   2.339   2.038   2.189  0.3425  0.1409 -0.2963
 1148W        W 2556   1.865   3.181   8.657  0.1368  0.1312  0.1912
 1149W        W 2557   1.279   0.196   0.090 -0.1497  0.4131 -0.0908
 1150W        W 2558   4.532   5.384   7.962 -0.1536  0.3249 -0.0172
 1151W        W 2559   1.970   0.669   6.698  0.3453 -0.3474  0.0122
 1152W        W 2560   1.299   0.731   0.055 -0.0489  0.0521 -0.0984
 1153W        W 2561   3.617   4.661   6.023 -0.1041  0.0045 -0.2143
 1154W        W 2562   6.004   2.449   7.827  0.4333 -0.1635 -0.0955
 1155W        W 2563   3.946   5.094   1.593  0.2844 -0.2565  0.0093
 1156W        W 2564   0.911   5.086   7.648 -0.2244  0.3190  0.5058
 1157W        W 2565   1.185   3.931   0.062 -0.0291 -0.0805  0.1498
 1158W        W 2566   4.268   0.461   6.894 -0.1626  0.2276  0.0209
 1159W        W 2567   2.695   2.158   1.110 -0.0163  0.0175  0.2186
 1160W        W 2568   0.622   2.661   1.022 -0.0616  0.1337  0.2295
 1161W        W 2569   5.866   3.149   7.311  0.2797 -0.2652  0.1894
 1162W        W 2570   4.197   0.059   1.223 -0.2764 -0.1623 -0.1238
 1163W        W 2571   6.296   0.189   1.434  0.0022  0.0021 -0.1009
 1164W        W 2572   1.017   3.843   6.353  0.1107 -0.1003  0.0786
 1165W        W 2573   4.755   3.159   7.605  0.3315 -0.1133 -0.0880
 1166W        W 2574   0.374   3.439   7.367 -0.4179 -0.0929  0.4687
 1167W        W 2575   0.413   0.152   8.676  0.1272  0.1542  0.1342
 1168W        W 2576   1.760   5.574   8.080  0.1035  0.2300  0.0191
 1169W        W 2577   3.527   2.336   2.646  0.1606  0.2661  0.0567
 1170W        W 2578   0.331   3.397   1.455  0.3065 -0.2654 -0.0661
 1171W        W 2579   2.629   3.248   7.517  0.2073 -0.1262 -0.1559
 1172W        W 2580   4.051   0.600   8.188 -0.1364 -0.0617 -0.2103
 1173W        W 2581   2.748   0.360   7.308 -0.0951  0.0841 -0.1055
 1174W        W 2582   4.692   4.074   8.291  0.1863 -0.0095 -0.0886
 1175W        W 2583   1.712   3.801   7.786 -0.1093 -0.0821  0.1144
 1176W        W 2584   5.346   2.006   5.875 -0.2533 -0.0398  0.1907
 1177W        W 2585   4.686   0.478   1.980  0.2409  0.2097  0.2130
 1178W        W 2586   3.946   4.398   0.637 -0.1520  0.1431 -0.1200
 1179W        W 2587   0.917   1.447   7.375 -0.2684 -0.1046  0.2153
 1180W        W 2588   5.678   0.927   7.339 -0.0744 -0.0536 -0.2189
 1181W        W 2589   5.039   4.931   2.765 -0.1497 -0.0800  0.2767
 1182W        W 2590   2.023   3.130   6.827  0.1118  0.2763 -0.3340
 1183W        W 2591   0.816   4.266   8.118  0.0338  0.1707  0.0712
 1184W        W 2592   3.783   1.934   0.889  0.0371 -0.0189  0.0939
 1185W        W 2593   6.062   3.407   1.167  0.1711 -0.0069 -0.1702
 1186W        W 2594   2.054   5.478   1.633 -0.0919 -0.0647  0.0968
 1187W        W 2595   5.305   5.930   8.037 -0.2398 -0.2171  0.3584
 1188W        W 2596   5.187   3.416   7.763  0.0418 -0.1110  0.1199
 1189W        W 2597   1.921   4.560   1.407 -0.2900  0.1908 -0.1126
 1190W        W 2598   0.106   4.695   7.763 -0.0548 -0.2546  0.0149
 1191W        W 2599   0.551   5.289   1.796 -0.2408  0.0489  0.2212
 1192W        W 2600   0.973   1.604   7.989 -0.2725 -0.0629 -0.0087
 1193W        W 2601   3.909   5.514   2.729  0.1377  0.4526 -0.0804
 1194W        W 2602   4.276   0.283   7.905 -0.0408  0.0439 -0.2517
 1195W        W 2603   5.847   5.746   7.072  0.2280 -0.3134 -0.3315
 1196W        W 2604   0.567   1.214   0.793  0.0582  0.1721  0.2374
 1197W        W 2605   6.216   5.681   2.050  0.0195 -0.0284  0.1524
 1198W        W 2606   3.690   0.947   1.302  0.0023 -0.0411  0.2686
 1199W        W 2607   0.912   4.118   1.771  0.2539 -0.3270 -0.2404
 1200W        W 2608   4.650   1.396   6.347  0.2420 -0.1056 -0.1575
 1201W        W 2609   5.726   4.822   0.588  0.0709 -0.0153 -0.0086
 1202W        W 2610   0.756   5.811   2.034  0.0711  0.0498 -0.1121
 1203W        W 2611   1.921   3.632   0.032  0.1567  0.1179 -0.0615
 1204W        W 2612   3.070   6.001   0.539  0.0380 -0.1349  0.0004
 1205W        W 2613   6.298   1.559   8.017 -0.0104  0.1809 -0.2821
 1206W        W 2614   0.724   3.318   0.319  0.2610  0.0122 -0.0292
 1207W        W 2615   5.471   5.587   2.320  0.2729  0.0255 -0.1351
 1208W        W 2616   1.000   2.404   0.779 -0.0070  0.0843 -0.1732
 1209W        W 2617   4.016   1.623   1.267  0.0081  0.0342 -0.2112
 1210W        W 2618   2.678   1.745   7.907  0.0631  0.0271  0.0788
 1211W        W 2619   4.788   2.679   0.597 -0.3346 -0.2721 -0.1337
 1212W        W 2620   2.848   5.861   0.091  0.2085  0.0786  0.1201
 1213W        W 2621   5.256   4.296   1.322 -0.0831  0.0631 -0.0654
 1214W        W 2622   1.051   6.333   7.391 -0.1198  0.4473 -0.0412
 1215W        W 2623   4.970   2.020   0.936  0.0063 -0.0084 -0.1292
 1216W        W 2624   5.103   2.594   2.065 -0.2852 -0.1762  0.0829
 1217W        W 2625   0.700   3.669   8.344  0.1407 -0.1237 -0.0012
 1218W        W 2626   2.241   2.946   7.830 -0.0102 -0.1326 -0.1573
 1219W        W 2627   1.794   1.748   8.161  0.0669 -0.2058 -0.4092
 1220W        W 2628   3.349   1.657   0.130  0.0200 -0.1437  0.1396
 1221W        W 2629   3.126   3.560   8.248  0.1596 -0.0841 -0.0816
 1222W        W 2630   6.354   0.160   7.984  0.1582  0.1740 -0.0155
 1223W        W 2631   5.455   4.708   2.394 -0.0141  0.3137 -0.1765
 1224W        W 2632   2.261   4.847   8.066  0.2958 -0.2345 -0.2249
 1225W        W 2633   0.118   2.214   0.291 -0.0486 -0.2081  0.0223
 1226W        W 2634   3.169   1.983   8.660 -0.0668 -0.1151  0.0072
 1227W        W 2635   4.650   3.965   6.487 -0.4371  0.1585  0.0136
 1228W        W 2636   0.369   2.689   0.556 -0.3981  0.1499 -0.0172
 1229W        W 2637   6.442   5.366   0.917  0.0509  0.1905  0.1634
 1230W        W 2638   5.727   0.300   1.167 -0.0189  0.1050  0.1223
 1231W        W 2639   2.838   3.227   0.171  0.2345  0.2234  0.0032
 1232W        W 2640   4.924   6.492   1.960  0.1079  0.0154 -0.3533
 1233W        W 2641   2.031   2.868   0.167  0.1584  0.1209  0.1474
 1234W        W 2642   1.565   5.878   6.970 -0.2886  0.1752 -0.4071
 1235W        W 2643   0.471   1.711   0.551 -0.1887 -0.1684  0.1780
 1236W        W 2644   0.006   2.566   7.022 -0.0221 -0.1112 -0.3112
 1237W        W 2645   2.465   3.445   1.162  0.0069  0.2765  0.0552
 1238W        W 2646   4.198   4.638   1.473 -0.2385  0.1600 -0.0086
 1239W        W 2647   5.742   3.808   0.538  0.1457  0.0215 -0.1983
 1240W        W 2648   0.400   6.381   0.310  0.0085  0.2265 -0.0942
 1241W        W 2649   4.762   3.509   2.075  0.1886 -0.2630  0.2368
 1242W        W 2650   6.216   0.752   7.673  0.0985  0.0470 -0.2549
 1243W        W 2651   1.718   4.161   8.369  0.0042  0.0708  0.0826
 1244W        W 2652   5.427   2.144   6.667 -0.3098  0.2088  0.1819
 1245W        W 2653   5.043   5.488   8.186 -0.3047  0.0354 -0.2144
 1246W        W 2654   1.142   0.888   1.593  0.0522  0.1839 -0.0152
 1247W        W 2655   3.769   0.651   0.271 -0.0493  0.1572  0.1326
 1248W        W 2656   4.387   4.948   6.680  0.0924 -0.0054  0.3708
 1249W        W 2657   0.323   2.453   2.956  0.1398  0.1146  0.1447
 1250W        W 2658   4.378   5.421   2.608 -0.0223  0.0624  0.0871
 1251W        W 2659   1.782   5.190   7.264  0.0022  0.0561 -0.0361
 1252W        W 2660   4.927   5.825   3.175  0.0903 -0.3269  0.0303
 1253W        W 2661   2.988   5.995   7.966  0.3070  0.3117 -0.0147
 1254W        W 2662   5.552   1.258   6.966 -0.1224  0.3068 -0.1177
 1255W        W 2663   0.658   3.823   7.471 -0.1872 -0.0463 -0.2532
 1256W        W 2664   2.200   2.998   6.399 -0.0485 -0.0689  0.4108
 1257W        W 2665   4.519   0.846   0.803  0.1995  0.2379  0.0659
 1258W        W 2666   3.493   3.175   7.331 -0.2068 -0.0973  0.1207
 1259W        W 2667   0.106   2.518   0.996 -0.1047 -0.1573  0.2871
 1260W        W 2668   0.982   1.143   8.243 -0.0817  0.0396  0.0992
 1261W        W 2669   0.493   3.898   1.554  0.1060 -0.1437  0.1100
 1262W        W 2670   3.285   0.559   2.443 -0.1527  0.0103 -0.1007
 1263W        W 2671   4.537   4.569   1.923  0.1208  0.1537  0.2623
 1264W        W 2672   1.468   2.325   0.616 -0.1380 -0.1283  0.1782
 1265W        W 2673   4.448   4.012   8.793 -0.0496 -0.0061 -0.1495
 1266W        W 2674   1.053   2.978   0.082  0.2996  0.1431 -0.0995
 1267W        W 2675   6.172   2.693   7.410 -0.1571 -0.1174 -0.0304
 1268W        W 2676   4.120   2.412   1.033  0.2026 -0.2715  0.2041
 1269W        W 2677   5.025   2.775   7.772  0.0079  0.0607 -0.0894
 1270W        W 2678   2.918   4.863   1.296 -0.0753 -0.1002 -0.1422
 1271W        W 2679   2.236   5.889   1.932 -0.1883  0.2465  0.0157
 1272W        W 2680   0.286   5.256   7.567  0.1048 -0.1554 -0.0448
 1273W        W 2681   3.371   4.932   7.345  0.0735  0.0119 -0.4957
 1274W        W 2682   3.843   3.625   6.214 -0.0722  0.0632 -0.1341
 1275W        W 2683   4.590   6.343   1.091  0.2259  0.1637 -0.0110
 1276W        W 2684   4.422   0.491   6.286 -0.0957 -0.0015 -0.1635
 1277W        W 2685   0.716   3.706   6.720  0.0901 -0.1810  0.1170
 1278W        W 2686   5.318   1.777   8.401 -0.1114 -0.1879 -0.0047
 1279W        W 2687   4.525   2.733   2.074  0.0667  0.0423 -0.3067
 1280W        W 2688   3.368   1.821   1.907 -0.1567  0.1385 -0.0133
 1281W        W 2689   1.516   1.294   0.938 -0.2065  0.0367 -0.1764
 1282W        W 2690   4.866   2.194   2.315  0.3253 -0.1526 -0.2202
 1283W        W 2691   0.082   3.017   1.173  0.0631 -0.1825 -0.1493
 1284W        W 2692   0.581   1.282   1.298 -0.4260  0.2060 -0.1880
 1285W        W 2693   0.478   4.990   8.157  0.0442  0.0059 -0.1166
 1286W        W 2694   6.040   2.210   7.150 -0.1749 -0.0975  0.0429
 1287W        W 2695   1.291   2.110   8.633 -0.0528  0.0685 -0.5725
 1288W        W 2696   6.500   5.014   0.594 -0.0554 -0.0006  0.1425
 1289W        W 2697   5.700   4.852   6.448  0.0707  0.1038 -0.1365
 1290W        W 2698   2.599   4.016   5.731 -0.3839  0.0705  0.3910
 1291W        W 2699   6.252   1.100   0.751  0.5309 -0.0337  0.2531
 1292W        W 2700   5.543   2.788   2.008 -0.0198  0.2164 -0.0525
 1293W        W 2701   3.930   6.206   6.405  0.0741 -0.3260 -0.0291
 1294W        W 2702   5.427   0.621   1.346  0.1442  0.2654  0.1466
 1295W        W 2703   0.385   4.916   6.765  0.0025 -0.1343 -0.0148
 1296W        W 2704   0.179   3.034   7.185 -0.0279  0.0059 -0.1819
 1297W        W 2705   5.545   4.023   2.510 -0.2207 -0.1392  0.1954
 1298W        W 2706   5.292   0.278   1.725  0.2186 -0.1873 -0.3856
 1299W        W 2707   4.305   0.542   7.362 -0.2672  0.0950 -0.3052
 1300W        W 2708   6.324   5.351   8.722  0.1880 -0.4954  0.0250
 1301W        W 2709   5.381   4.300   1.877 -0.0626  0.1933  0.0506
 1302W        W 2710   5.989   4.724   7.148 -0.1099 -0.0403  0.0038
 1303W        W 2711   2.442   5.648   6.422  0.0856  0.1644  0.0216
 1304W        W 2712   6.084   1.263   7.172 -0.0690  0.3426 -0.2069
 1305W        W 2713   5.513   5.871   7.465  0.1231 -0.3790 -0.2691
 1306W        W 2714   4.515   3.903   2.483  0.0105  0.0551  0.0746
 1307W        W 2715   3.576   5.338   8.307  0.0199  0.0334  0.0157
 1308W        W 2716   0.759   2.015   8.564 -0.2665 -0.2663 -0.2172
 1309W        W 2717   2.676   1.518   8.771 -0.0659  0.2108  0.0329
 1310W        W 2718   0.134   4.440   0.818  0.3138 -0.0589  0.0628
 1311W        W 2719   5.762   4.708   8.259 -0.0759  0.3112  0.1484
 1312W        W 2720   0.869   4.690   8.367  0.1978 -0.3410 -0.1167
 1313W        W 2721   3.162   3.619   2.052  0.1307 -0.1090 -0.2956
 1314W        W 2722   6.009   6.195   8.788  0.0725  0.1609 -0.2717
 1315W        W 2723   2.963   0.563   6.514 -0.2116 -0.1904  0.0805
 1316W        W 2724   1.185   1.851   7.568 -0.3475  0.1528 -0.0698
 1317W        W 2725   0.774   5.249   2.229  0.0856 -0.2539  0.2065
 1318W        W 2726   5.224   5.635   0.405  0.1473 -0.0906 -0.1913
 1319W        W 2727   5.086   1.527   1.145 -0.1126 -0.0216 -0.3887
 1320W        W 2728   0.591   2.822   7.796  0.0211 -0.4758  0.3643
 1321W        W 2729   0.681   5.556   7.219 -0.0008  0.3073  0.0794
 1322W        W 2730   3.571   1.018   8.183  0.0330 -0.1836 -0.1889
 1323W        W 2731   2.763   5.543   7.708 -0.1004  0.2360  0.2856
 1324W        W 2732   3.731   2.787   2.889  0.2576  0.0074 -0.1252
 1325W        W 2733   2.477   5.203   0.633  0.2993 -0.0907 -0.0569
 1326W        W 2734   3.751   1.485   0.455 -0.0978 -0.4418 -0.1245
 1327W        W 2735   6.419   4.046   6.897  0.0981 -0.1207 -0.2228
 1328W        W 2736   4.463   3.478   7.024 -0.0125 -0.1007 -0.0031
 1329W        W 2737   5.492   1.420   0.207  0.0643 -0.0106  0.0288
 1330W        W 2738   1.947   3.460   1.115 -0.2546  0.0014 -0.0134
 1331W        W 2739   5.656   2.831   7.900 -0.0802 -0.1607  0.0223
 1332W        W 2740   3.334   4.389   7.234 -0.1794 -0.1756  0.1285
 1333W        W 2741   5.443   1.766   6.303  0.0548  0.1756  0.1334
 1334W        W 2742   5.237   4.565   0.220  0.1435  0.1503  0.3478
 1335W        W 2743   0.160   3.517   8.380 -0.1601 -0.1173  0.0651
 1336W        W 2744   4.395   0.792   7.778 -0.0319  0.1967 -0.1146
 1337W        W 2745   3.026   0.485   1.912 -0.0818 -0.0105  0.1133
 1338W        W 2746   2.066   1.731   7.509 -0.3375 -0.0746  0.0316
 1339W        W 2747   3.248   4.612   2.767 -0.1226  0.3458  0.0504
 1340W        W 2748   2.363   1.631   0.494  0.1343 -0.1106  0.3418
 1341W        W 2749   3.999   4.023   6.515 -0.1878 -0.1461  0.3744
 1342W        W 2750   0.857   2.145   1.782 -0.0659  0.0467 -0.0847
 1343W        W 2751   0.624   2.284   6.665 -0.2038  0.2649  0.1166
 1344W        W 2752   0.093   0.361   7.468  0.2908  0.1750 -0.4589
 1345W        W 2753   4.143   5.795   6.596 -0.0704  0.2979 -0.2487
 1346W        W 2754   5.882   5.899   0.371  0.0058  0.1875 -0.0251
 1347W        W 2755   5.260   6.269   1.614 -0.0598 -0.1127  0.1432
 1348W        W 2756   4.988   5.265   0.695  0.0715  0.1308  0.1324
 1349W        W 2757   6.231   2.257   2.136 -0.1987  0.0723  0.0790
 1350W        W 2758   2.767   0.901   1.095  0.0132 -0.1307 -0.2784
 1351W        W 2759   0.134   1.098   1.591 -0.0586  0.1672  0.1335
 1352W        W 2760   2.205   4.505   8.702  0.1433  0.1359  0.1949
 1353W        W 2761   1.890   1.702   7.039  0.0547 -0.1957  0.1374
 1354W        W 2762   2.359   2.973   2.562  0.1963  0.0914  0.2647
 1355W        W 2763   0.745   0.658   6.335 -0.2797  0.0052  0.0304
 1356W        W 2764   5.479   2.024   0.912  0.2216 -0.0881 -0.2631
 1357W        W 2765   6.282   4.819   8.135 -0.0988 -0.1436  0.2272
 1358W        W 2766   1.934   0.239   7.701 -0.2172 -0.0792  0.0175
 1359W        W 2767   5.814   0.880   6.730 -0.1414  0.2579 -0.0027
 1360W        W 2768   6.453   0.787   0.120 -0.0502 -0.0580 -0.1183
 1361W        W 2769   5.794   4.421   2.168 -0.0018  0.1185  0.2835
 1362W        W 2770   6.277   2.754   6.545 -0.0045  0.2900  0.1264
 1363W        W 2771   5.335   2.290   0.317  0.2604 -0.1353  0.0928
 1364W        W 2772   4.036   1.916   8.173 -0.0474  0.2693 -0.0160
 1365W        W 2773   1.481   5.995   7.494  0.2867  0.3424  0.2229
 1366W        W 2774   5.572   4.526   1.031 -0.0627 -0.4042  0.2388
 1367W        W 2775   1.172   0.410   6.079  0.1156 -0.1336 -0.5180
 1368W        W 2776   1.589   3.742   0.411  0.2970 -0.2342  0.0574
 1369W        W 2777   2.302   4.718   0.492 -0.0742 -0.1643 -0.0476
 1370W        W 2778   1.959   5.544   8.512  0.0854 -0.3792 -0.0206
 1371W        W 2779   5.492   4.134   0.133 -0.0825  0.0572 -0.1356
 1372W        W 2780   6.198   6.233   1.537 -0.2011 -0.2382  0.1997
 1373W        W 2781   4.958   1.336   0.312  0.0458  0.0489 -0.0036
 1374W        W 2782   3.595   1.366   1.019 -0.1992  0.0547  0.2212
 1375W        W 2783   4.808   5.313   2.474 -0.2979 -0.2339  0.0654
 1376W        W 2784   3.870   3.546   7.325  0.0159  0.0368 -0.6489
 1377W        W 2785   1.431   0.551   5.649  0.0151 -0.3033 -0.1309
 1378W        W 2786   2.116   5.519   0.745  0.0893 -0.1837 -0.0277
 1379W        W 2787   6.032   6.012   6.643  0.0931  0.0835 -0.1132
 1380W        W 2788   2.806   6.301   8.610 -0.1179  0.1740 -0.0551
 1381W        W 2789   1.612   5.064   0.039 -0.2961 -0.1217 -0.2675
 1382W        W 2790   5.203   2.488   0.864  0.2024  0.1594  0.0863
 1383W        W 2791   5.685   1.468   8.562  0.1408  0.1503  0.1237
 1384W        W 2792   3.298   5.375   7.591  0.0014 -0.0211  0.0637
 1385W        W 2793   0.487   2.820   2.397  0.0805 -0.1420 -0.1183
 1386W        W 2794   0.934   4.123   0.816  0.3051 -0.2539  0.0635
 1387W        W 2795   1.552   1.175   6.367 -0.0976  0.1994  0.2568
 1388W        W 2796   0.429   4.258   7.639 -0.4016  0.0010  0.0081
 1389W        W 2797   0.186   0.374   0.202  0.0331  0.0082 -0.1806
 1390W        W 2798   0.128   3.496   1.990  0.1364  0.0558 -0.1772
 1391W        W 2799   0.204   5.307   7.008  0.2691 -0.1133 -0.1213
 1392W        W 2800   0.467   6.485   0.843 -0.4463 -0.2288  0.1922
 1393W        W 2801   3.611   5.751   2.349 -0.1683  0.3490  0.2709
 1394W        W 2802   3.689   4.067   7.489  0.1674  0.1235  0.0238
 1395W        W 2803   3.997   5.111   2.498  0.1929 -0.1051  0.0695
 1396W        W 2804   3.864   3.624   1.284 -0.3414 -0.1089 -0.3755
 1397W        W 2805   5.071   6.113   0.641 -0.0005 -0.2468  0.1824
 1398W        W 2806   2.535   3.724   0.692  0.0642  0.2875 -0.2088
 1399W        W 2807   0.041   1.560   1.317  0.2575  0.0013  0.1084
 1400W        W 2808   1.567   0.394   8.548  0.1757 -0.3683 -0.1729
 1401W        W 2809   3.392   3.853   7.112  0.0372 -0.0196 -0.1387
 1402W        W 2810   4.340   0.993   8.307 -0.1071 -0.2855  0.0165
 1403W        W 2811   0.189   3.522   6.962 -0.1937  0.0757  0.2702
 1404W        W 2812   3.609   5.250   0.348 -0.1327 -0.0216 -0.2162
 1405W        W 2813   0.818   1.134   5.833 -0.0572 -0.0700  0.0786
 1406W        W 2814   2.440   2.860   2.069  0.1325  0.3297 -0.2545
 1407W        W 2815   3.826   4.936   8.495 -0.0046 -0.2965 -0.4754
 1408W        W 2816   0.639   4.698   7.829  0.1343 -0.1855 -0.3568
 1409W        W 2817   1.146   0.313   7.124 -0.0768 -0.0002 -0.2649
 1410W        W 2818   3.740   5.546   7.718  0.0209 -0.0559 -0.1713
 1411W        W 2819   4.902   2.297   0.076  0.1695  0.2161 -0.2791
 1412W        W 2820   3.278   0.484   6.890 -0.0572  0.1461 -0.3968
 1413W        W 2821   2.553   6.478   7.697 -0.1674 -0.0368 -0.1216
 1414W        W 2822   0.509   0.828   6.866  0.2199  0.0589 -0.1961
 1415W        W 2823   1.700   4.531   7.901  0.0453  0.2010 -0.1942
 1416W        W 2824   5.729   6.197   7.799 -0.1229 -0.2388 -0.1248
 1417W        W 2825   6.097   5.244   1.871  0.0784  0.0382  0.1892
 1418W        W 2826   1.510   2.917   0.168  0.0152 -0.1240 -0.4460
 1419W        W 2827   5.853   3.354   7.878 -0.1059 -0.0291 -0.0914
 1420W        W 2828   2.490   0.651   0.197 -0.0009 -0.1260  0.0449
 1421W        W 2829   4.763   4.188   2.945  0.0870  0.1872 -0.0178
 1422W        W 2830   3.256   2.618   1.878  0.1884  0.2295  0.0075
 1423W        W 2831   4.793   0.129   2.453  0.1434  0.0612 -0.0480
 1424W        W 2832   1.474   4.437   6.959 -0.2100 -0.2983 -0.0108
 1425W        W 2833   6.100   6.239   2.044  0.1641 -0.1241  0.1783
 1426W        W 2834   5.479   0.187   0.305 -0.2274 -0.1884 -0.2236
 1427W        W 2835   0.218   2.600   1.944  0.0214 -0.4219 -0.0743
 1428W        W 2836   0.390   1.661   7.162 -0.0886 -0.0118  0.1858
 1429W        W 2837   0.367   3.946   7.087  0.2038 -0.1375 -0.0155
 1430W        W 2838   2.876   1.636   6.676 -0.1873 -0.0948  0.0756
 1431W        W 2839   4.199   0.645   8.785 -0.2710  0.0473  0.2714
 1432W        W 2840   6.498   2.053   8.021 -0.2428  0.4043  0.1633
 1433W        W 2841   4.276   3.898   5.957 -0.2492  0.1136 -0.0074
 1434W        W 2842   5.054   0.703   1.055 -0.0299 -0.0938 -0.0460
 1435W        W 2843   3.916   1.321   8.359 -0.0239  0.0186  0.1564
 1436W        W 2844   1.992   5.059   0.521  0.1818 -0.0036 -0.0672
 1437W        W 2845   6.118   4.883   8.590  0.1217 -0.3746  0.1946
 1438W        W 2846   4.278   4.089   1.459  0.2059 -0.1490  0.0572
 1439W        W 2847   2.427   1.170   0.369 -0.0622  0.1535 -0.2412
 1440W        W 2848   4.786   4.898   0.420  0.3398 -0.1180 -0.0720
 1441W        W 2849   1.648   1.574   7.666  0.0834  0.0835 -0.0457
 1442W        W 2850   1.919   4.423   7.190 -0.0926 -0.2565 -0.0068
 1443W        W 2851   3.044   6.055   1.555 -0.0716  0.6510 -0.1317
 1444W        W 2852   5.487   5.437   7.281  0.2432 -0.2211  0.1675
 1445W        W 2853   0.623   2.428   8.214 -0.0356 -0.1764 -0.4797
 1446W        W 2854   4.519   6.445   2.833 -0.0687 -0.2283 -0.1144
 1447W        W 2855   1.121   4.410   8.678 -0.0074 -0.0475  0.0255
 1448W        W 2856   0.073   4.117   1.680  0.0861  0.2781 -0.2812
 1449W        W 2857   1.441   1.142   7.342 -0.2296 -0.0589 -0.0173
 1450W        W 2858   1.762   6.404   0.014  0.0408  0.2378  0.2342
 1451W        W 2859   0.486   2.207   0.834  0.2123  0.0380  0.3100
 1452W        W 2860   2.569   0.240   8.710 -0.1875  0.0007 -0.1635
 1453W        W 2861   5.462   5.390   7.857 -0.3703  0.1571  0.0310
 1454W        W 2862   3.440   0.015   7.882  0.2212  0.4473 -0.5284
 1455W        W 2863   5.087   0.270   2.886  0.0575 -0.1133 -0.4126
 1456W        W 2864   3.941   4.108   3.240 -0.0586  0.0296 -0.0009
 1457W        W 2865   5.086   3.256   1.169 -0.0951 -0.0033  0.0154
 1458W        W 2866   4.158   0.935   7.071 -0.0320  0.0685  0.1283
 1459W        W 2867   6.344   0.515   2.699  0.1517  0.0266 -0.0026
 1460W        W 2868   4.286   5.793   7.051  0.1062 -0.0227  0.0274
 1461W        W 2869   0.890   1.739   0.134 -0.0655  0.1796  0.2605
 1462W        W 2870   1.059   0.854   7.212  0.0975  0.2357 -0.2553
 1463W        W 2871   4.004   4.796   2.034  0.2103  0.1018  0.1104
 1464W        W 2872   0.058   3.436   0.916  0.0130 -0.0530 -0.3133
 1465W        W 2873   2.839   5.906   1.123 -0.4093 -0.1571 -0.1425
 1466W        W 2874   3.619   2.427   2.143  0.3861  0.3442 -0.0337
 1467W        W 2875   0.039   5.446   1.742 -0.3318  0.1179  0.0620
 1468W        W 2876   2.306   3.894   1.901 -0.4406 -0.2275 -0.0963
 1469W        W 2877   5.641   6.192   8.313  0.1267  0.0616  0.1797
 1470W        W 2878   4.128   0.520   0.660  0.5684 -0.1685  0.1681
 1471W        W 2879   3.228   5.078   0.909 -0.1628  0.2212 -0.0327
 1472W        W 2880   5.967   1.198   8.149  0.0954 -0.1751  0.0437
 1473W        W 2881   3.774   6.051   7.789 -0.2543 -0.2148 -0.0824
 1474W        W 2882   5.141   4.510   7.127 -0.1222  0.3077  0.2660
 1475W        W 2883   2.406   1.767   7.094 -0.0087  0.0641  0.0618
 1476W        W 2884   4.874   0.141   6.508 -0.3597  0.1160 -0.1836
 1477W        W 2885   3.989   2.268   6.441 -0.1802 -0.1627 -0.3650
 1478W        W 2886   3.637   6.009   1.395  0.1475 -0.1122 -0.1585
 1479W        W 2887   3.760   2.782   7.274 -0.0353  0.2218 -0.2854
 1480W        W 2888   1.854   1.082   7.965 -0.2113  0.0294 -0.0257
 1481W        W 2889   4.867   4.337   0.530  0.0700  0.0769  0.0512
 1482W        W 2890   4.675   3.244   8.497  0.0381  0.0249 -0.1007
 1483W        W 2891   3.581   4.792   2.375  0.1128  0.0663  0.0069
 1484W        W 2892   0.892   6.331   1.969 -0.1935 -0.1339 -0.1135
 1485W        W 2893   4.235   5.575   1.076  0.2738  0.0064  0.0871
 1486W        W 2894   0.560   6.077   1.144  0.0416 -0.0535 -0.3054
 1487W        W 2895   5.092   6.176   1.150  0.4631 -0.2189 -0.3293
 1488W        W 2896   1.374   3.182   1.616 -0.0309 -0.0379 -0.0360
 1489W        W 2897   4.620   5.683   2.208  0.0030  0.0928 -0.0880
 1490W        W 2898   3.909   2.937   8.131 -0.0583 -0.1006 -0.1874
 1491W        W 2899   6.100   4.981   0.255  0.2977 -0.1088  0.0826
 1492W        W 2900   2.628   5.671   8.181  0.3448  0.0505 -0.0407
 1493W        W 2901   6.136   1.717   7.501 -0.3555 -0.1129 -0.1020
 1494W        W 2902   0.077   3.090   8.194 -0.3939  0.0897 -0.0364
 1495W        W 2903   2.482   0.967   7.320 -0.0932 -0.1245 -0.0861
 1496W        W 2904   2.054   1.590   0.129 -0.1379  0.1377 -0.2565
 1497W        W 2905   0.446   0.282   7.894  0.2844  0.2299  0.0373
 1498W        W 2906   1.785   5.957   1.875 -0.0843 -0.1164 -0.0980
 1499W        W 2907   2.147   5.681   6.902  0.0315 -0.4268  0.1472
 1500W        W 2908   3.324   3.405   0.694  0.0174  0.0717  0.1364
 1501W        W 2909   1.687   1.219   0.158 -0.1754  0.0231 -0.0884
 1502W        W 2910   0.838   1.871   7.025 -0.1309  0.2669  0.1469
 1503W        W 2911   3.615   6.279   7.386  0.0097  0.0812  0.0714
 1504W        W 2912   2.433   0.033   2.515 -0.0182 -0.1471 -0.0117
 1505W        W 2913   1.555   2.594   6.908 -0.1549 -0.3065 -0.2441
 1506W        W 2914   1.192   4.978   8.596 -0.1468 -0.1799 -0.1733
 1507W        W 2915   5.996   3.897   8.036 -0.1772  0.0327 -0.1276
 1508W        W 2916   0.602   0.404   7.105  0.0013  0.1327 -0.1812
 1509W        W 2917   0.313   1.120   8.569  0.2829  0.0884  0.1011
 1510W        W 2918   0.589   3.163   8.631 -0.1262  0.0248 -0.0433
 1511W        W 2919   0.904   6.341   6.907  0.1023 -0.0269  0.1809
 1512W        W 2920   4.998   3.792   6.985  0.0689  0.4030 -0.1187
 1513W        W 2921   2.265   5.306   1.218 -0.3198 -0.3745  0.0610
 1514W        W 2922   3.660   0.308   0.661  0.2687 -0.1298 -0.0046
 1515W        W 2923   1.112   4.586   0.956  0.0494  0.0402 -0.2538
 1516W        W 2924   0.923   2.516   2.341  0.0678  0.1425  0.0297
 1517W        W 2925   1.660   2.007   1.263 -0.1009 -0.0685  0.0442
 1518W        W 2926   4.461   4.911   2.337 -0.0789  0.0614 -0.0887
 1519W        W 2927   4.825   2.425   8.083  0.7284  0.1373  0.4935
 1520W        W 2928   6.070   4.453   0.217 -0.2122  0.2373  0.2939
 1521W        W 2929   1.119   5.681   0.451 -0.1558  0.4704  0.2803
 1522W        W 2930   2.255   1.963   7.958  0.3036  0.1574  0.0387
 1523W        W 2931   3.345   1.039   6.869  0.2043 -0.0685  0.0464
 1524W        W 2932   2.317   0.859   1.906  0.1881 -0.0691 -0.1674
 1525W        W 2933   5.252   1.357   7.901  0.0961  0.0740 -0.1387
 1526W        W 2934   2.619   4.845   8.581  0.1545 -0.2752  0.1616
 1527W        W 2935   2.666   2.670   8.255 -0.4008  0.0008  0.2435
 1528W        W 2936   0.949   2.582   1.455 -0.1908  0.0706  0.2053
 1529W        W 2937   3.772   0.794   6.860  0.1849  0.2159  0.0337
 1530W        W 2938   4.967   0.494   0.593  0.1058  0.0656  0.1903
 1531W        W 2939   3.244   5.560   0.090 -0.1479 -0.0538  0.1895
 1532W        W 2940   4.227   2.172   6.923 -0.0131  0.1982 -0.1253
 1533W        W 2941   2.234   2.240   7.331  0.2471 -0.2164  0.1367
 1534W        W 2942   0.980   0.615   6.770 -0.0567  0.1209  0.0159
 1535W        W 2943   1.241   4.378   2.086  0.1140 -0.3604  0.2386
 1536W        W 2944   0.623   5.088   7.195 -0.1840 -0.2163  0.1707
 1537W        W 2945   0.054   6.360   7.321  0.0999 -0.0015  0.0302
 1538W        W 2946   1.535   0.730   7.021  0.1482 -0.1346  0.1525
 1539W        W 2947   1.341   4.663   6.516 -0.0397 -0.0488  0.0732
 1540W        W 2948   3.683   5.293   2.040  0.0501  0.0436 -0.3663
 1541W        W 2949   5.162   4.722   0.729 -0.0802  0.2482 -0.0874
 1542W        W 2950   3.089   5.399   0.594  0.0906 -0.2950  0.3557
 1543W        W 2951   5.237   1.670   1.604  0.1444  0.0630  0.3349
 1544W        W 2952   6.252   0.891   1.335  0.2259  0.1189 -0.2086
 1545W        W 2953   0.993   0.649   8.009  0.4412  0.1185 -0.1143
 1546W        W 2954   5.438   0.424   8.307 -0.1090  0.0171 -0.0434
 1547W        W 2955   0.757   0.443   0.124 -0.4606 -0.1142 -0.1333
 1548W        W 2956   4.144   6.049   7.462  0.0538  0.1253  0.1841
 1549W        W 2957   3.221   2.400   7.991 -0.0850  0.0662 -0.0491
 1550W        W 2958   5.582   4.882   1.960  0.0974  0.2912 -0.0623
 1551W        W 2959   1.023   6.018   7.990  0.1752 -0.0079  0.0142
 1552W        W 2960   1.427   3.233   0.971  0.1271  0.1580  0.2472
 1553W        W 2961   2.450   6.141   8.197 -0.2978 -0.0073 -0.0538
 1554W        W 2962   0.357   0.538   1.973 -0.1005  0.4022 -0.3269
 1555W        W 2963   6.080   1.314   1.134  0.0454  0.1337 -0.0879
 1556W        W 2964   5.794   0.510   7.707  0.0072  0.2295  0.0118
 1557W        W 2965   4.009   2.081   8.651  0.4421 -0.2365 -0.2467
 1558W        W 2966   4.561   5.133   7.072  0.1759 -0.0841  0.1232
 1559W        W 2967   2.501   3.091   7.034 -0.1853 -0.2128  0.3497
 1560W        W 2968   4.464   5.094   7.543 -0.1168  0.0401  0.0271
 1561W        W 2969   0.147   3.049   7.684 -0.0931 -0.1259 -0.1101
 1562W        W 2970   6.129   2.814   6.007 -0.0209 -0.0689  0.0951
 1563W        W 2971   2.767   4.096   0.342 -0.0728  0.1426 -0.1045
 1564W        W 2972   4.408   4.434   7.991 -0.0766 -0.1609  0.0739
 1565W        W 2973   2.967   5.474   1.852 -0.0731  0.0842  0.0939
 1566W        W 2974   6.023   1.793   8.372  0.2722  0.0832  0.0648
 1567W        W 2975   2.854   3.277   0.711 -0.0560  0.0237  0.2324
 1568W        W 2976   2.554   1.241   0.806 -0.5426 -0.0163 -0.0689
 1569W        W 2977   1.701   2.210   8.395  0.1271 -0.0498  0.3081
 1570W        W 2978   4.917   2.709   8.465  0.2098  0.0257 -0.3684
 1571W        W 2979   4.949   4.152   2.297 -0.1829 -0.0879 -0.0092
 1572W        W 2980   1.832   2.864   0.820 -0.0925 -0.0175 -0.0450
 1573W        W 2981   2.059   4.770   7.627  0.3355 -0.1915 -0.0853
 1574W        W 2982   2.024   4.884   0.993  0.1175 -0.0078  0.1780
 1575W        W 2983   6.389   4.955   6.847  0.1254  0.2088  0.2228
 1576W        W 2984   5.622   1.903   0.396  0.0450 -0.0851 -0.1932
 1577W        W 2985   4.337   0.051   2.090  0.1065 -0.0293  0.1148
 1578W        W 2986   4.414   3.676   8.403  0.1581 -0.1058  0.0837
 1579W        W 2987   1.441   2.771   2.315  0.1235  0.0878 -0.2781
 1580W        W 2988   0.717   4.347   1.418 -0.1454 -0.1018  0.1870
 1581W        W 2989   4.765   3.407   6.651  0.0285 -0.2969  0.2678
 1582W        W 2990   1.995   5.524   2.236  0.3270 -0.1050  0.4683
 1583W        W 2991   4.929   0.038   0.302 -0.3626  0.0417 -0.0688
 1584W        W 2992   2.182   6.010   0.874  0.1411 -0.1886  0.1291
 1585W        W 2993   3.703   6.486   1.348 -0.0555 -0.1051 -0.3578
 1586W        W 2994   4.875   1.629   8.664 -0.0026  0.4291  0.0926
 1587W        W 2995   3.188   1.866   8.136  0.2948  0.0710  0.1645
 1588W        W 2996   4.203   5.536   7.535  0.4820 -0.1837 -0.0843
 1589W        W 2997   2.296   0.821   0.740 -0.0858  0.2239 -0.0201
 1590W        W 2998   2.759   5.187   2.263  0.0075  0.1106 -0.1530
 1591W        W 2999   4.217   2.480   0.190 -0.1804  0.2629  0.1842
 1592W        W 3000   0.473   4.450   8.781 -0.3546 -0.2340  0.1571
 1593W        W 3001   5.089   5.100   7.518 -0.1449  0.1993  0.1223
 1594W        W 3002   1.960   0.397   0.702  0.2902  0.0745 -0.0256
 1595W        W 3003   5.968   1.927   0.838  0.0988  0.2556 -0.0320
 1596W        W 3004   0.516   5.207   2.692 -0.0429  0.2086  0.0657
 1597W        W 3005   3.083   2.914   8.174  0.2715 -0.0043  0.2896
 1598W        W 3006   5.693   5.713   8.279 -0.2338 -0.2017 -0.1083
 1599W        W 3007   2.593   3.253   8.011 -0.0767  0.0676  0.1493
 1600W        W 3008   3.392   4.727   1.180 -0.0633  0.3918 -0.2569
 1601W        W 3009   2.177   4.409   6.467 -0.0606 -0.0064 -0.1009
 1602W        W 3010   6.151   2.969   8.001  0.2358  0.1183  0.0096
 1603W        W 3011   3.954   4.013   7.005  0.0314  0.2172 -0.2471
 1604W        W 3012   6.466   2.055   0.786 -0.1501  0.1690 -0.4947
 1605W        W 3013   4.527   5.838   1.332  0.3547  0.0923  0.1805
 1606W        W 3014   2.111   0.512   6.169 -0.0591  0.1623  0.0712
 1607W        W 3015   3.903   2.575   1.603  0.0908  0.0754  0.2488
 1608W        W 3016   1.836   2.522   7.535 -0.1150 -0.1944  0.0316
 1609W        W 3017   2.915   1.860   7.191  0.0526  0.1129  0.2095
 1610W        W 3018   5.402   1.056   0.524 -0.3541  0.1639 -0.2287
 1611W        W 3019   4.666   2.722   7.363  0.0197  0.0539  0.2438
 1612W        W 3020   4.524   3.172   0.463  0.3059 -0.0510  0.0030
 1613W        W 3021   3.014   5.158   6.799  0.0699  0.0021  0.1499
 1614W        W 3022   4.735   1.169   7.607 -0.2779  0.1719  0.0124
 1615W        W 3023   5.843   2.982   8.466  0.3051  0.3566  0.2232
 1616W        W 3024   2.933   1.416   4.240  0.2808  0.0809 -0.0111
 1617W        W 3025   1.568   3.976   7.114  0.0665 -0.2184  0.0523
 1618W        W 3026   3.195   4.062   8.173 -0.1026 -0.1602  0.0124
 1619W        W 3027   3.182   2.189   2.240 -0.0419  0.1200  0.0064
 1620W        W 3028   6.098   4.690   7.681  0.0247  0.3249 -0.2262
 1621W        W 3029   6.213   5.260   1.378  0.0844  0.4663 -0.1067
 1622W        W 3030   0.898   2.591   6.115 -0.2031  0.3166 -0.4054
 1623W        W 3031   6.114   4.369   8.109 -0.0061  0.3168 -0.2599
 1624W        W 3032   1.723   3.979   1.822  0.1578 -0.2164  0.1381
 1625W        W 3033   3.216   4.939   0.326  0.0725  0.5175 -0.2727
 1626W        W 3034   1.144   4.120   1.336 -0.0230  0.2250 -0.0153
 1627W        W 3035   1.362   2.875   0.664  0.0580  0.0832  0.0068
 1628W        W 3036   4.160   6.456   7.185  0.2052  0.0171  0.0175
 1629W        W 3037   2.068   0.549   8.118  0.0666 -0.2275  0.1032
 1630W        W 3038   6.403   1.939   8.734 -0.1776  0.0727 -0.1474
 1631W        W 3039   3.955   2.100   1.912 -0.0556  0.0883  0.0535
 1632W        W 3040   4.749   4.812   8.764 -0.0368 -0.1480  0.1141
 1633W        W 3041   2.500   5.756   1.508 -0.1751  0.0654 -0.1787
 1634W        W 3042   0.691   6.312   2.413  0.1434  0.2927 -0.0509
 1635W        W 3043   2.671   1.250   7.906 -0.0155  0.0914  0.0124
 1636W        W 3044   2.263   2.448   1.884  0.0376  0.0759 -0.0235
 1637W        W 3045   1.918   4.406   2.226 -0.1500  0.0134  0.2629
 1638W        W 3046   5.021   1.980   7.991  0.1438 -0.0293 -0.0863
 1639W        W 3047   4.105   1.097   0.468  0.1916  0.0952  0.0546
 1640W        W 3048   5.192   1.413   7.314 -0.0085 -0.3677  0.0425
 1641W        W 3049   1.413   5.848   8.467 -0.0094  0.0070  0.2601
 1642W        W 3050   2.501   2.967   0.938  0.1119 -0.0765  0.1868
 1643W        W 3051   1.085   3.409   1.295 -0.1168  0.0421  0.0753
 1644W        W 3052   0.823   2.183   1.194 -0.2579 -0.0749  0.0301
 1645W        W 3053   3.209   4.345   0.409 -0.0194 -0.1179  0.1407
 1646W        W 3054   3.794   6.304   2.246 -0.0761  0.0608  0.3956
 1647W        W 3055   3.713   4.194   0.232 -0.2001  0.0415 -0.1362
 1648W        W 3056   5.279   4.055   7.477  0.0095  0.0815 -0.1580
 1649W        W 3057   4.361   3.585   6.327 -0.1321 -0.0302 -0.1382
 1650W        W 3058   1.258   3.726   1.723  0.2314 -0.0225 -0.3863
 1651W        W 3059   5.068   0.057   7.391 -0.1911  0.0228  0.0885
 1652W        W 3060   4.080   4.247   7.750  0.0194  0.1644  0.1005
 1653W        W 3061   3.619   4.451   2.054  0.2915 -0.0463 -0.1106
 1654W        W 3062   1.166   5.566   1.814  0.0246 -0.0132 -0.1270
 1655W        W 3063   2.635   3.972   1.431 -0.2479  0.0198 -0.0516
 1656W        W 3064   3.441   3.887   0.559  0.0905 -0.2696  0.1322
 1657W        W 3065   4.482   1.425   2.183  0.2503 -0.0971 -0.1221
 1658W        W 3066   4.294   3.873   7.343 -0.0547 -0.0553 -0.0513
 1659W        W 3067   2.655   2.169   8.541 -0.1392 -0.2517 -0.1245
 1660W        W 3068   3.101   0.937   7.948 -0.0225  0.0581  0.0096
 1661W        W 3069   0.089   4.045   2.155 -0.2313  0.1006 -0.0028
 1662W        W 3070   2.985   6.494   2.424 -0.1493  0.0404  0.0174
 1663W        W 3071   5.918   0.583   1.565 -0.0758 -0.0794  0.4575
 1664W        W 3072   2.937   1.523   0.979  0.4879  0.0454  0.0217
 1665W        W 3073   0.079   1.502   0.838 -0.0721 -0.2314  0.0328
 1666W        W 3074   1.773   4.331   0.610 -0.1721 -0.0858  0.2528
 1667W        W 3075   0.994   6.051   8.521 -0.1508  0.1066  0.1861
 1668W        W 3076   1.301   2.879   8.436 -0.2212  0.1737 -0.0142
 1669W        W 3077   6.199   4.738   1.491  0.1103  0.1509  0.2526
 1670W        W 3078   6.149   6.017   0.787 -0.0689 -0.2203 -0.1576
 1671W        W 3079   5.188   2.788   0.277  0.2996 -0.0711 -0.1418
 1672W        W 3080   2.346   2.441   7.779  0.3896 -0.0223 -0.0623
 1673W        W 3081   4.412   4.620   0.245 -0.2713 -0.2084 -0.2198
 1674W        W 3082   2.964   4.632   0.741 -0.4555 -0.1532 -0.2742
 1675W        W 3083   5.951   1.438   2.168 -0.1901  0.1942 -0.2204
 1676W        W 3084   3.788   4.503   7.130  0.0712  0.0057 -0.3238
 1677W        W 3085   0.710   5.138   8.597 -0.2360  0.0063  0.0534
 1678W        W 3086   6.013   5.207   0.699  0.0470  0.1457 -0.0319
 1679W        W 3087   4.668   5.673   8.558 -0.0322 -0.1087  0.0343
 1680W        W 3088   4.210   3.609   1.850  0.2709  0.2321 -0.1397
 1681W        W 3089   1.408   6.392   6.999  0.3165 -0.0833  0.0044
 1682W        W 3090   6.183   0.165   0.155  0.0638  0.0509  0.0869
 1683W        W 3091   1.445   0.155   1.030  0.2900 -0.2472  0.0741
 1684W        W 3092   3.367   5.519   7.127 -0.1546 -0.1827 -0.1017
 1685W        W 3093   3.678   4.589   7.626  0.6484  0.3764  0.0805
 1686W        W 3094   5.112   6.163   6.664 -0.2883 -0.2355  0.1515
 1687W        W 3095   6.258   6.096   7.767  0.0001  0.2397  0.0253
 1688W        W 3096   2.507   6.301   2.038 -0.1263  0.0382 -0.2526
 1689W        W 3097   4.795   4.967   1.044  0.0583  0.0297 -0.1714
 1690W        W 3098   4.205   5.392   2.084  0.2044  0.1798  0.4210
 1691W        W 3099   0.191   5.486   8.314 -0.0774 -0.2107  0.4665
 1692W        W 3100   4.983   0.093   0.846 -0.0090  0.0114  0.2963
 1693W        W 3101   3.293   6.128   1.038 -0.0410 -0.0810  0.1341
 1694W        W 3102   5.408   4.941   7.097  0.0276  0.1458 -0.1020
 1695W        W 3103   3.731   0.395   7.182  0.0347 -0.0233  0.0482
 1696W        W 3104   0.081   5.903   1.773 -0.1033 -0.1434  0.1469
 1697W        W 3105   3.182   1.226   7.322  0.3815  0.3429 -0.3234
 1698W        W 3106   3.292   4.221   6.716 -0.1048 -0.1440 -0.0770
 1699W        W 3107   3.555   1.379   2.144  0.4105  0.1286  0.0559
 1700W        W 3108   4.425   0.230   1.640 -0.0236 -0.3149  0.0874
 1701W        W 3109   6.494   6.444   1.889 -0.2268  0.1418 -0.1374
 1702W        W 3110   1.561   5.406   0.588 -0.0249 -0.0879  0.1534
 1703W        W 3111   1.356   3.213   6.249 -0.1124 -0.1359 -0.1415
 1704W        W 3112   2.003   0.478   3.069  0.0449  0.1277  0.0991
 1705W        W 3113   6.118   1.101   0.156 -0.1507 -0.1082  0.0923
 1706W        W 3114   0.219   4.441   1.363 -0.0097  0.0621 -0.0312
 1707W        W 3115   0.661   6.088   0.616 -0.0864 -0.0575 -0.0521
 1708W        W 3116   2.230   1.046   8.276 -0.0877 -0.0697  0.0871
 1709W        W 3117   5.248   0.635   2.598 -0.0316 -0.0859 -0.2446
 1710W        W 3118   3.417   4.297   0.912 -0.0718 -0.1505  0.1300
 1711W        W 3119   4.619   3.708   1.581 -0.0504 -0.0665  0.3010
 1712W        W 3120   5.354   0.422   7.313 -0.0845 -0.2228  0.0112
 1713W        W 3121   4.042   3.573   6.736  0.2102  0.5581  0.0809
 1714W        W 3122   6.216   1.821   1.845  0.1333  0.1265 -0.1089
 1715W        W 3123   2.970   5.211   7.258  0.2575  0.0418 -0.4346
 1716W        W 3124   0.621   5.623   8.525  0.0684 -0.0799 -0.2272
 1717W        W 3125   4.728   6.165   2.363  0.0786  0.0171  0.2046
 1718W        W 3126   5.517   0.789   1.834  0.1886  0.3671  0.1815
 1719W        W 3127   1.337   6.147   1.201 -0.2350  0.2339 -0.0037
 1720W        W 3128   6.131   1.307   1.654 -0.0619 -0.1610 -0.4442
 1721W        W 3129   3.674   3.515   1.763 -0.1074  0.1112 -0.0907
 1722W        W 3130   1.885   1.228   2.317  0.1640  0.0019  0.0758
 1723W        W 3131   1.540   4.830   0.681 -0.0114  0.0159 -0.2069
 1724W        W 3132   1.901   4.298   2.709 -0.0066 -0.0167 -0.0050
 1725W        W 3133   5.583   0.915   2.320  0.1145 -0.1954 -0.0994
 1726W        W 3134   5.431   1.184   0.985  0.0708  0.0596  0.3511
 1727W        W 3135   1.623   5.446   1.906  0.2586  0.0245 -0.0966
 1728W        W 3136   1.705   4.545   6.223 -0.0056  0.1380 -0.1698
 1729W        W 3137   6.347   5.257   7.864 -0.1135 -0.0098 -0.2310
 1730W        W 3138   5.228   1.181   8.720  0.3877 -0.3434 -0.2170
 1731W        W 3139   5.939   6.384   0.537 -0.1073  0.0357 -0.1540
 1732W        W 3140   5.127   0.300   8.652  0.1235  0.2868 -0.0073
 1733W        W 3141   5.965   0.599   8.132 -0.3867  0.1718 -0.2532
 1734W        W 3142   4.329   5.133   0.269 -0.0103  0.1940 -0.0130
 1735W        W 3143   3.885   0.795   7.488 -0.3229  0.2077  0.0137
 1736W        W 3144   4.718   5.468   0.281 -0.0680 -0.2260 -0.1817
 1737W        W 3145   0.067   2.636   8.021 -0.2985  0.2533  0.2800
 1738W        W 3146   5.968   3.967   0.122 -0.2925  0.1002  0.3376
 1739W        W 3147   2.437   3.146   1.548 -0.1272  0.1469 -0.1225
 1740W        W 3148   1.729   4.132   8.823  0.1028 -0.1189 -0.1811
 1741W        W 3149   6.080   2.082   0.328 -0.1840 -0.0224 -0.2095
 1742W        W 3150   1.334   2.364   1.083  0.1174 -0.1960 -0.0364
 1743W        W 3151   1.099   4.649   7.316 -0.0300 -0.0670 -0.1763
 1744W        W 3152   3.272   0.621   0.524 -0.0322  0.1650 -0.0919
 1745W        W 3153   4.291   0.132   8.444 -0.1563  0.1181 -0.6020
 1746W        W 3154   4.560   1.689   6.723  0.0481 -0.2828 -0.0272
 1747W        W 3155   6.369   0.709   1.804  0.0807  0.0833  0.1023
 1748W        W 3156   5.694   3.564   6.901 -0.0012 -0.3098 -0.0247
 1749W        W 3157   3.300   6.161   0.061 -0.2730 -0.3354 -0.0699
 1750W        W 3158   6.095   3.765   6.031  0.2668  0.1585 -0.1185
 1751W        W 3159   5.816   3.167   6.641 -0.3018  0.1646 -0.3904
 1752W        W 3160   2.912   4.482   7.639 -0.3732  0.0257 -0.4007
 1753W        W 3161   1.503   1.532   2.786  0.1152 -0.2736 -0.0138
 1754W        W 3162   3.063   4.958   7.731 -0.1475 -0.0097 -0.0251
 1755W        W 3163   3.921   6.100   6.906 -0.1384  0.0668 -0.0315
 1756W        W 3164   0.829   5.361   0.777 -0.2143 -0.0300  0.3600
 1757W        W 3165   0.492   1.300   8.153 -0.2925 -0.4627  0.4259
 1758W        W 3166   3.441   5.747   2.849 -0.2032  0.1979 -0.2882
 1759W        W 3167   1.802   3.366   1.782 -0.0555 -0.0170  0.0110
 1760W        W 3168   4.771   1.802   2.032  0.1345 -0.3571 -0.0075
 1761W        W 3169   2.267   3.431   8.456 -0.3411  0.2131 -0.0254
 1762W        W 3170   1.078   5.231   7.070  0.1094  0.0600 -0.0556
 1763W        W 3171   4.113   2.997   0.148 -0.1144  0.2455 -0.1725
 1764W        W 3172   2.642   2.352   0.563 -0.1054 -0.0563  0.0477
 1765W        W 3173   0.299   5.885   0.192 -0.3551  0.1898  0.4647
 1766W        W 3174   4.601   2.731   6.627  0.2296  0.1222  0.1330
 1767W        W 3175   3.880   4.674   1.056 -0.0686  0.6901 -0.2124
 1768W        W 3176   3.194   1.165   0.765 -0.0619 -0.2834 -0.0316
 1769W        W 3177   3.865   4.152   1.044 -0.1190  0.1030 -0.3666
 1770W        W 3178   2.713   3.817   2.227  0.1049  0.3692  0.0766
 1771W        W 3179   1.149   2.495   0.251  0.0916 -0.1153  0.1177
 1772W        W 3180   1.712   2.124   7.263 -0.3788  0.1050  0.3373
 1773W        W 3181   2.739   0.853   2.264 -0.0884 -0.0603  0.0184
 1774W        W 3182   1.799   1.553   6.158  0.1321 -0.0740  0.0880
 1775W        W 3183   4.982   1.424   6.841 -0.0728  0.0097  0.0245
 1776W        W 3184   4.118   4.870   7.126  0.1131  0.0128  0.2583
 1777W        W 3185   4.820   1.849   1.396 -0.2713 -0.0126 -0.0282
 1778W        W 3186   2.062   0.153   6.680  0.1805  0.3573 -0.0350
 1779W        W 3187   1.757   5.041   8.077 -0.2173  0.0959  0.4475
 1780W        W 3188   1.524   0.221   8.090  0.1198 -0.0188 -0.1502
 1781W        W 3189   3.146   5.300   1.367 -0.0457 -0.1855  0.1894
 1782W        W 3190   0.829   4.995   1.239  0.3253  0.1861 -0.0712
 1783W        W 3191   2.856   0.725   6.990 -0.2509 -0.0223  0.1733
 1784W        W 3192   2.277   3.721   7.634 -0.0193  0.1432 -0.0061
 1785W        W 3193   1.454   4.935   7.017  0.0591  0.1260 -0.0937
 1786W        W 3194   0.930   4.391   6.528 -0.1118  0.2467 -0.2264
 1787W        W 3195   1.368   1.921   8.180  0.2575  0.1051 -0.1666
 1788W        W 3196   3.605   5.450   1.556 -0.0754 -0.1199 -0.2859
 1789W        W 3197   5.684   3.946   8.494 -0.1268 -0.1037 -0.2378
 1790W        W 3198   1.355   2.304   7.779  0.3436 -0.0836 -0.3246
 1791W        W 3199   4.007   5.292   7.983  0.3962  0.1189  0.1384
 1792W        W 3200   5.235   3.767   2.136  0.0598  0.3101  0.0322
 1793W        W 3201   2.468   2.004   1.553  0.1206  0.0939 -0.3531
 1794W        W 3202   3.756   5.554   0.885  0.3174  0.1335  0.4241
 1795W        W 3203   0.155   0.399   5.910  0.0310 -0.0508 -0.0116
 1796W        W 3204   6.362   0.015   6.868 -0.1223 -0.0039  0.1511
 1797W        W 3205   2.621   4.183   8.695 -0.2246  0.0885 -0.0487
 1798W        W 3206   1.151   1.554   8.554  0.0366 -0.1523 -0.0068
 1799W        W 3207   5.984   1.627   0.131  0.2759 -0.0632  0.1226
 1800W        W 3208   5.918   3.406   2.518 -0.0334  0.0093  0.3356
 1801W        W 3209   4.865   4.289   8.781 -0.0112 -0.4444  0.2040
 1802W        W 3210   3.098   3.537   7.405 -0.1295 -0.1567  0.1661
 1803W        W 3211   2.281   0.138   7.322 -0.0729  0.2404 -0.1131
 1804W        W 3212   1.520   4.309   7.503 -0.0039 -0.0111  0.0432
 1805W        W 3213   4.203   3.000   7.674  0.1452  0.1057 -0.3116
 1806W        W 3214   1.352   3.996   2.823 -0.0901  0.1458 -0.1566
 1807W        W 3215   5.564   3.537   1.205 -0.2811  0.1394  0.3690
 1808W        W 3216   2.097   4.385   0.971  0.0202 -0.0666  0.3232
 1809W        W 3217   1.449   1.840   1.870 -0.3064  0.2556  0.1604
 1810W        W 3218   2.066   5.414   0.161  0.1399 -0.0475  0.0078
 1811W        W 3219   5.107   3.847   0.361  0.0144  0.0953  0.3124
 1812W        W 3220   2.743   5.916   1.991  0.1751  0.0618  0.3046
 1813W        W 3221   3.005   6.202   6.632  0.0562 -0.1560  0.1226
 1814W        W 3222   2.605   6.262   1.558 -0.1622 -0.1586  0.0037
 1815W        W 3223   4.866   0.519   7.506 -0.1415  0.0702  0.1818
 1816W        W 3224   0.508   2.897   0.173 -0.0755 -0.2677 -0.0428
 1817W        W 3225   2.444   0.954   6.750 -0.0129 -0.1453 -0.0445
 1818W        W 3226   5.233   4.966   8.562 -0.0994  0.1813  0.0491
 1819W        W 3227   3.629   2.274   6.775 -0.0715  0.2690  0.1953
 1820W        W 3228   2.715   4.582   0.178  0.0524 -0.1359  0.1702
 1821W        W 3229   6.437   3.661   2.461 -0.3488  0.0171  0.3672
 1822W        W 3230   5.920   2.929   2.366 -0.0319 -0.0525 -0.1007
 1823W        W 3231   5.271   1.618   0.655  0.0688 -0.2838  0.1103
 1824W        W 3232   3.574   2.309   8.698 -0.0266  0.0312 -0.0786
 1825W        W 3233   4.746   3.523   0.878 -0.0793 -0.2940  0.0644
 1826W        W 3234   0.301   5.462   0.583  0.0426 -0.0234  0.1970
 1827W        W 3235   6.334   5.453   7.366 -0.1718 -0.3746 -0.0432
 1828W        W 3236   6.237   3.083   6.962 -0.3923  0.0394 -0.0035
 1829W        W 3237   1.830   3.248   0.417  0.1443  0.1580 -0.0892
 1830W        W 3238   1.577   1.546   1.436  0.0489  0.1647 -0.1888
 1831W        W 3239   3.499   3.222   8.211  0.1583  0.2291 -0.0931
 1832W        W 3240   1.842   3.042   8.157  0.0775  0.1798 -0.1785
 1833W        W 3241   3.730   2.010   7.761  0.0395 -0.0665  0.1784
 1834W        W 3242   3.376   2.437   7.520  0.1966 -0.0248  0.1748
 1835W        W 3243   2.792   3.283   2.165 -0.1312  0.0677 -0.0614
 1836W        W 3244   3.836   2.549   7.694  0.1743 -0.0924  0.0997
 1837W        W 3245   3.638   3.980   2.024 -0.0356 -0.0703  0.0261
 1838W        W 3246   0.477   5.751   1.565  0.0410  0.1294  0.2855
 1839W        W 3247   2.914   0.518   1.402  0.3960 -0.0452 -0.3442
 1840W        W 3248   3.182   5.899   8.440  0.1954  0.0235  0.0427
 1841W        W 3249   6.037   5.631   1.095 -0.2544  0.2748  0.2419
 1842W        W 3250   5.869   2.703   6.926 -0.1192  0.1995  0.0867
 1843W        W 3251   1.350   1.009   0.515 -0.1631 -0.3203 -0.2332
 1844W        W 3252   3.872   1.019   1.939  0.4615 -0.2715 -0.0175
 1845W        W 3253   4.047   2.592   2.068 -0.2937  0.0475 -0.0639
 1846W        W 3254   4.956   4.915   6.931 -0.0810  0.3082 -0.0317
 1847W        W 3255   2.683   6.009   7.557 -0.0496  0.0334 -0.1389
 1848W        W 3256   5.325   0.559   7.790 -0.2217  0.4412  0.4409
 1849W        W 3257   3.017   6.045   2.546 -0.0700  0.0825 -0.4112
 1850W        W 3258   4.037   4.450   8.742  0.0545 -0.1700  0.1362
 1851W        W 3259   4.993   0.913   7.921 -0.1550 -0.0628  0.0485
 1852W        W 3260   6.487   5.935   2.505  0.2028 -0.0656  0.0020
 1853W        W 3261   0.238   3.377   0.289  0.0642  0.1240 -0.0670
 1854W        W 3262   6.150   4.631   0.659 -0.0492  0.0395 -0.0561
 1855W        W 3263   5.302   2.621   8.206  0.3313  0.0370  0.3373
 1856W        W 3264   2.847   4.320   7.081  0.1377  0.0572  0.3107
 1857W        W 3265   2.076   3.005   1.220 -0.2679 -0.0551  0.1443
 1858W        W 3266   3.023   1.516   2.313 -0.2910  0.2455  0.2355
 1859W        W 3267   3.800   2.824   1.044 -0.4832  0.0666  0.0303
 1860W        W 3268   1.129   2.960   7.900  0.1359 -0.1057 -0.1094
 1861W        W 3269   5.886   3.071   1.622 -0.0091 -0.1086  0.0204
 1862W        W 3270   0.007   0.612   8.143  0.0075  0.0973  0.1263
 1863W        W 3271   2.601   2.695   1.365  0.1077  0.0111 -0.0926
 1864W        W 3272   0.201   5.950   0.739  0.0494  0.1004  0.1120
 1865W        W 3273   3.733   0.919   0.790  0.1873 -0.3134 -0.0828
 1866W        W 3274   4.557   0.803   0.248  0.2333 -0.0046 -0.0867
 1867W        W 3275   0.415   1.831   0.047 -0.0004  0.0579 -0.0323
 1868W        W 3276   6.144   4.334   1.857 -0.2861  0.0084 -0.0232
 1869W        W 3277   3.836   1.003   8.760  0.0054  0.0206 -0.1912
 1870W        W 3278   2.807   4.162   6.593  0.0320  0.0892 -0.3963
 1871W        W 3279   1.959   0.156   8.398 -0.0245  0.1008  0.3779
 1872W        W 3280   1.062   4.627   1.631 -0.0272 -0.0866 -0.0036
 1873W        W 3281   4.656   2.976   0.999 -0.0664 -0.2702 -0.4286
 1874W        W 3282   2.703   5.649   0.696  0.0583  0.1051  0.1598
 1875W        W 3283   3.294   0.689   1.083  0.3038  0.2877 -0.2549
 1876W        W 3284   4.215   1.252   7.516  0.1231 -0.1819 -0.0307
 1877W        W 3285   5.904   4.375   8.604 -0.1070 -0.1218  0.0190
 1878W        W 3286   1.933   0.416   1.753 -0.0301  0.1158  0.2340
 1879W        W 3287   4.983   1.910   6.950  0.2307  0.3647  0.1476
 1880W        W 3288   5.870   0.866   1.113 -0.0981  0.0551  0.2406
   6.50705   6.50705   8.83120
