POPC template (Slipids atom order), coordinates from the CG2AT martini_3-0_slipids fragment
134
    1POPC     N    1   2.358   2.750   6.752
    1POPC   C12    2   2.214   2.710   6.732
    1POPC   C13    3   2.455   2.644   6.706
    1POPC   C14    4   2.397   2.881   6.688
    1POPC   C15    5   2.383   2.769   6.900
    1POPC  H12A    6   2.149   2.776   6.789
    1POPC  H12B    7   2.183   2.731   6.630
    1POPC  H13A    8   2.438   2.622   6.602
    1POPC  H13B    9   2.556   2.680   6.719
    1POPC  H13C   10   2.441   2.554   6.765
    1POPC  H14A   11   2.384   2.875   6.581
    1POPC  H14B   12   2.335   2.960   6.727
    1POPC  H14C   13   2.501   2.903   6.710
    1POPC  H15A   14   2.485   2.798   6.916
    1POPC  H15B   15   2.317   2.846   6.938
    1POPC  H15C   16   2.363   2.677   6.952
    1POPC   C11   17   2.185   2.564   6.768
    1POPC  H11A   18   2.224   2.540   6.869
    1POPC  H11B   19   2.075   2.546   6.770
    1POPC     P   20   2.702   2.631   6.465
    1POPC   O13   21   2.734   2.712   6.584
    1POPC   O14   22   2.560   2.591   6.449
    1POPC   O12   23   2.750   2.708   6.337
    1POPC   O11   24   2.793   2.503   6.464
    1POPC    C1   25   2.775   2.641   6.213
    1POPC    HA   26   2.837   2.709   6.149
    1POPC    HB   27   2.834   2.547   6.226
    1POPC    C2   28   2.643   2.613   6.137
    1POPC    HS   29   2.588   2.532   6.191
    1POPC   O21   30   2.673   2.578   6.001
    1POPC   C21   31   2.694   2.451   5.977
    1POPC   O22   32   2.696   2.360   6.059
    1POPC   C22   33   2.705   2.431   5.827
    1POPC   H2R   34   2.623   2.489   5.779
    1POPC   H2S   35   2.802   2.473   5.792
    1POPC    C3   36   2.550   2.738   6.138
    1POPC    HX   37   2.523   2.765   6.242
    1POPC    HY   38   2.609   2.823   6.098
    1POPC   O31   39   2.434   2.719   6.055
    1POPC   C31   40   2.339   2.643   6.109
    1POPC   O32   41   2.340   2.593   6.220
    1POPC   C32   42   2.231   2.619   6.005
    1POPC   H2X   43   2.144   2.573   6.057
    1POPC   H2Y   44   2.199   2.716   5.963
    1POPC   C23   45   2.692   2.282   5.788
    1POPC   H3R   46   2.603   2.238   5.838
    1POPC   H3S   47   2.783   2.227   5.822
    1POPC   C24   48   2.674   2.263   5.637
    1POPC   H4R   49   2.585   2.323   5.604
    1POPC   H4S   50   2.761   2.305   5.582
    1POPC   C25   51   2.651   2.116   5.598
    1POPC   H5R   52   2.622   2.111   5.490
    1POPC   H5S   53   2.566   2.077   5.657
    1POPC   C26   54   2.773   2.025   5.618
    1POPC   H6R   55   2.807   2.030   5.724
    1POPC   H6S   56   2.742   1.920   5.598
    1POPC   C27   57   2.891   2.059   5.525
    1POPC   H7R   58   2.856   2.052   5.420
    1POPC   H7S   59   2.923   2.164   5.543
    1POPC   C28   60   3.013   1.966   5.545
    1POPC   H8R   61   3.047   1.976   5.650
    1POPC   H8S   62   2.979   1.861   5.532
    1POPC   C29   63   3.125   2.001   5.450
    1POPC   H91   64   3.146   2.109   5.442
    1POPC  C210   65   3.200   1.917   5.376
    1POPC  H101   66   3.278   1.959   5.312
    1POPC  C211   67   3.192   1.766   5.372
    1POPC  H11R   68   3.290   1.725   5.404
    1POPC  H11S   69   3.117   1.725   5.443
    1POPC  C212   70   3.159   1.712   5.231
    1POPC  H12R   71   3.050   1.726   5.213
    1POPC  H12S   72   3.214   1.769   5.153
    1POPC  C213   73   3.194   1.563   5.214
    1POPC  H13R   74   3.151   1.526   5.118
    1POPC  H13S   75   3.146   1.505   5.296
    1POPC  C214   76   3.345   1.532   5.213
    1POPC  H14R   77   3.393   1.568   5.306
    1POPC  H14S   78   3.357   1.421   5.212
    1POPC  C215   79   3.420   1.591   5.091
    1POPC  H15R   80   3.367   1.561   4.998
    1POPC  H15S   81   3.415   1.702   5.097
    1POPC  C216   82   3.567   1.548   5.081
    1POPC  H16R   83   3.612   1.599   4.993
    1POPC  H16S   84   3.622   1.583   5.171
    1POPC  C217   85   3.585   1.396   5.065
    1POPC  H17R   86   3.485   1.348   5.060
    1POPC  H17S   87   3.637   1.356   5.155
    1POPC  C218   88   3.662   1.354   4.939
    1POPC  H18R   89   3.618   1.400   4.849
    1POPC  H18S   90   3.768   1.384   4.947
    1POPC  H18T   91   3.659   1.244   4.927
    1POPC   C33   92   2.281   2.525   5.893
    1POPC   H3X   93   2.332   2.436   5.937
    1POPC   H3Y   94   2.355   2.580   5.830
    1POPC   C34   95   2.166   2.473   5.805
    1POPC   H4X   96   2.097   2.412   5.869
    1POPC   H4Y   97   2.106   2.559   5.768
    1POPC   C35   98   2.212   2.388   5.685
    1POPC   H5X   99   2.279   2.307   5.721
    1POPC   H5Y  100   2.122   2.340   5.640
    1POPC   C36  101   2.283   2.470   5.576
    1POPC   H6X  102   2.216   2.552   5.542
    1POPC   H6Y  103   2.375   2.516   5.618
    1POPC   C37  104   2.322   2.384   5.454
    1POPC   H7X  105   2.230   2.341   5.409
    1POPC   H7Y  106   2.385   2.300   5.489
    1POPC   C38  107   2.397   2.463   5.346
    1POPC   H8X  108   2.331   2.547   5.311
    1POPC   H8Y  109   2.488   2.509   5.390
    1POPC   C39  110   2.437   2.379   5.223
    1POPC   H9X  111   2.346   2.330   5.181
    1POPC   H9Y  112   2.477   2.448   5.144
    1POPC  C310  113   2.544   2.273   5.253
    1POPC  H10X  114   2.637   2.324   5.287
    1POPC  H10Y  115   2.509   2.209   5.336
    1POPC  C311  116   2.578   2.181   5.134
    1POPC  H11X  117   2.606   2.243   5.046
    1POPC  H11Y  118   2.488   2.124   5.105
    1POPC  C312  119   2.693   2.085   5.166
    1POPC  H12X  120   2.783   2.146   5.191
    1POPC  H12Y  121   2.667   2.025   5.256
    1POPC  C313  122   2.731   1.989   5.052
    1POPC  H13X  123   2.749   2.046   4.958
    1POPC  H13Y  124   2.827   1.940   5.079
    1POPC  C314  125   2.627   1.880   5.024
    1POPC  H14X  126   2.593   1.835   5.120
    1POPC  H14Y  127   2.538   1.927   4.976
    1POPC  C315  128   2.679   1.766   4.933
    1POPC  H15X  129   2.724   1.810   4.842
    1POPC  H15Y  130   2.592   1.705   4.901
    1POPC  C316  131   2.780   1.673   5.001
    1POPC  H16X  132   2.807   1.590   4.933
    1POPC  H16Y  133   2.873   1.728   5.027
    1POPC  H16Z  134   2.737   1.630   5.094
   5.00000   5.00000   5.00000
