; MARTINI 3.0.0 POPC bilayer in W, flattened into one moleculetype.
; Generated by make_cg_topology.py from the pinned MARTINI files.
#include "martini_v3.0.0.itp"

[ atomtypes ]
C1      72.000 0.000 A 0.0 0.0
C4h     72.000 0.000 A 0.0 0.0
N4a     72.000 0.000 A 0.0 0.0
Q1      72.000 0.000 A 0.0 0.0
Q5      72.000 0.000 A 0.0 0.0
SN4a    54.000 0.000 A 0.0 0.0
W       72.000 0.000 A 0.0 0.0

[ moleculetype ]
SYS 1

[ atoms ]
     1 Q1        1 POPC  NC3        1   1.00
     2 Q5        1 POPC  PO4        2  -1.00
     3 SN4a      1 POPC  GL1        3   0.00
     4 N4a       1 POPC  GL2        4   0.00
     5 C1        1 POPC  C1A        5   0.00
     6 C4h       1 POPC  D2A        6   0.00
     7 C1        1 POPC  C3A        7   0.00
     8 C1        1 POPC  C4A        8   0.00
     9 C1        1 POPC  C1B        9   0.00
    10 C1        1 POPC  C2B       10   0.00
    11 C1        1 POPC  C3B       11   0.00
    12 C1        1 POPC  C4B       12   0.00
    13 Q1        2 POPC  NC3       13   1.00
    14 Q5        2 POPC  PO4       14  -1.00
    15 SN4a      2 POPC  GL1       15   0.00
    16 N4a       2 POPC  GL2       16   0.00
    17 C1        2 POPC  C1A       17   0.00
    18 C4h       2 POPC  D2A       18   0.00
    19 C1        2 POPC  C3A       19   0.00
    20 C1        2 POPC  C4A       20   0.00
    21 C1        2 POPC  C1B       21   0.00
    22 C1        2 POPC  C2B       22   0.00
    23 C1        2 POPC  C3B       23   0.00
    24 C1        2 POPC  C4B       24   0.00
    25 Q1        3 POPC  NC3       25   1.00
    26 Q5        3 POPC  PO4       26  -1.00
    27 SN4a      3 POPC  GL1       27   0.00
    28 N4a       3 POPC  GL2       28   0.00
    29 C1        3 POPC  C1A       29   0.00
    30 C4h       3 POPC  D2A       30   0.00
    31 C1        3 POPC  C3A       31   0.00
    32 C1        3 POPC  C4A       32   0.00
    33 C1        3 POPC  C1B       33   0.00
    34 C1        3 POPC  C2B       34   0.00
    35 C1        3 POPC  C3B       35   0.00
    36 C1        3 POPC  C4B       36   0.00
    37 Q1        4 POPC  NC3       37   1.00
    38 Q5        4 POPC  PO4       38  -1.00
    39 SN4a      4 POPC  GL1       39   0.00
    40 N4a       4 POPC  GL2       40   0.00
    41 C1        4 POPC  C1A       41   0.00
    42 C4h       4 POPC  D2A       42   0.00
    43 C1        4 POPC  C3A       43   0.00
    44 C1        4 POPC  C4A       44   0.00
    45 C1        4 POPC  C1B       45   0.00
    46 C1        4 POPC  C2B       46   0.00
    47 C1        4 POPC  C3B       47   0.00
    48 C1        4 POPC  C4B       48   0.00
    49 Q1        5 POPC  NC3       49   1.00
    50 Q5        5 POPC  PO4       50  -1.00
    51 SN4a      5 POPC  GL1       51   0.00
    52 N4a       5 POPC  GL2       52   0.00
    53 C1        5 POPC  C1A       53   0.00
    54 C4h       5 POPC  D2A       54   0.00
    55 C1        5 POPC  C3A       55   0.00
    56 C1        5 POPC  C4A       56   0.00
    57 C1        5 POPC  C1B       57   0.00
    58 C1        5 POPC  C2B       58   0.00
    59 C1        5 POPC  C3B       59   0.00
    60 C1        5 POPC  C4B       60   0.00
    61 Q1        6 POPC  NC3       61   1.00
    62 Q5        6 POPC  PO4       62  -1.00
    63 SN4a      6 POPC  GL1       63   0.00
    64 N4a       6 POPC  GL2       64   0.00
    65 C1        6 POPC  C1A       65   0.00
    66 C4h       6 POPC  D2A       66   0.00
    67 C1        6 POPC  C3A       67   0.00
    68 C1        6 POPC  C4A       68   0.00
    69 C1        6 POPC  C1B       69   0.00
    70 C1        6 POPC  C2B       70   0.00
    71 C1        6 POPC  C3B       71   0.00
    72 C1        6 POPC  C4B       72   0.00
    73 Q1        7 POPC  NC3       73   1.00
    74 Q5        7 POPC  PO4       74  -1.00
    75 SN4a      7 POPC  GL1       75   0.00
    76 N4a       7 POPC  GL2       76   0.00
    77 C1        7 POPC  C1A       77   0.00
    78 C4h       7 POPC  D2A       78   0.00
    79 C1        7 POPC  C3A       79   0.00
    80 C1        7 POPC  C4A       80   0.00
    81 C1        7 POPC  C1B       81   0.00
    82 C1        7 POPC  C2B       82   0.00
    83 C1        7 POPC  C3B       83   0.00
    84 C1        7 POPC  C4B       84   0.00
    85 Q1        8 POPC  NC3       85   1.00
    86 Q5        8 POPC  PO4       86  -1.00
    87 SN4a      8 POPC  GL1       87   0.00
    88 N4a       8 POPC  GL2       88   0.00
    89 C1        8 POPC  C1A       89   0.00
    90 C4h       8 POPC  D2A       90   0.00
    91 C1        8 POPC  C3A       91   0.00
    92 C1        8 POPC  C4A       92   0.00
    93 C1        8 POPC  C1B       93   0.00
    94 C1        8 POPC  C2B       94   0.00
    95 C1        8 POPC  C3B       95   0.00
    96 C1        8 POPC  C4B       96   0.00
    97 Q1        9 POPC  NC3       97   1.00
    98 Q5        9 POPC  PO4       98  -1.00
    99 SN4a      9 POPC  GL1       99   0.00
   100 N4a       9 POPC  GL2      100   0.00
   101 C1        9 POPC  C1A      101   0.00
   102 C4h       9 POPC  D2A      102   0.00
   103 C1        9 POPC  C3A      103   0.00
   104 C1        9 POPC  C4A      104   0.00
   105 C1        9 POPC  C1B      105   0.00
   106 C1        9 POPC  C2B      106   0.00
   107 C1        9 POPC  C3B      107   0.00
   108 C1        9 POPC  C4B      108   0.00
   109 Q1       10 POPC  NC3      109   1.00
   110 Q5       10 POPC  PO4      110  -1.00
   111 SN4a     10 POPC  GL1      111   0.00
   112 N4a      10 POPC  GL2      112   0.00
   113 C1       10 POPC  C1A      113   0.00
   114 C4h      10 POPC  D2A      114   0.00
   115 C1       10 POPC  C3A      115   0.00
   116 C1       10 POPC  C4A      116   0.00
   117 C1       10 POPC  C1B      117   0.00
   118 C1       10 POPC  C2B      118   0.00
   119 C1       10 POPC  C3B      119   0.00
   120 C1       10 POPC  C4B      120   0.00
   121 Q1       11 POPC  NC3      121   1.00
   122 Q5       11 POPC  PO4      122  -1.00
   123 SN4a     11 POPC  GL1      123   0.00
   124 N4a      11 POPC  GL2      124   0.00
   125 C1       11 POPC  C1A      125   0.00
   126 C4h      11 POPC  D2A      126   0.00
   127 C1       11 POPC  C3A      127   0.00
   128 C1       11 POPC  C4A      128   0.00
   129 C1       11 POPC  C1B      129   0.00
   130 C1       11 POPC  C2B      130   0.00
   131 C1       11 POPC  C3B      131   0.00
   132 C1       11 POPC  C4B      132   0.00
   133 Q1       12 POPC  NC3      133   1.00
   134 Q5       12 POPC  PO4      134  -1.00
   135 SN4a     12 POPC  GL1      135   0.00
   136 N4a      12 POPC  GL2      136   0.00
   137 C1       12 POPC  C1A      137   0.00
   138 C4h      12 POPC  D2A      138   0.00
   139 C1       12 POPC  C3A      139   0.00
   140 C1       12 POPC  C4A      140   0.00
   141 C1       12 POPC  C1B      141   0.00
   142 C1       12 POPC  C2B      142   0.00
   143 C1       12 POPC  C3B      143   0.00
   144 C1       12 POPC  C4B      144   0.00
   145 Q1       13 POPC  NC3      145   1.00
   146 Q5       13 POPC  PO4      146  -1.00
   147 SN4a     13 POPC  GL1      147   0.00
   148 N4a      13 POPC  GL2      148   0.00
   149 C1       13 POPC  C1A      149   0.00
   150 C4h      13 POPC  D2A      150   0.00
   151 C1       13 POPC  C3A      151   0.00
   152 C1       13 POPC  C4A      152   0.00
   153 C1       13 POPC  C1B      153   0.00
   154 C1       13 POPC  C2B      154   0.00
   155 C1       13 POPC  C3B      155   0.00
   156 C1       13 POPC  C4B      156   0.00
   157 Q1       14 POPC  NC3      157   1.00
   158 Q5       14 POPC  PO4      158  -1.00
   159 SN4a     14 POPC  GL1      159   0.00
   160 N4a      14 POPC  GL2      160   0.00
   161 C1       14 POPC  C1A      161   0.00
   162 C4h      14 POPC  D2A      162   0.00
   163 C1       14 POPC  C3A      163   0.00
   164 C1       14 POPC  C4A      164   0.00
   165 C1       14 POPC  C1B      165   0.00
   166 C1       14 POPC  C2B      166   0.00
   167 C1       14 POPC  C3B      167   0.00
   168 C1       14 POPC  C4B      168   0.00
   169 Q1       15 POPC  NC3      169   1.00
   170 Q5       15 POPC  PO4      170  -1.00
   171 SN4a     15 POPC  GL1      171   0.00
   172 N4a      15 POPC  GL2      172   0.00
   173 C1       15 POPC  C1A      173   0.00
   174 C4h      15 POPC  D2A      174   0.00
   175 C1       15 POPC  C3A      175   0.00
   176 C1       15 POPC  C4A      176   0.00
   177 C1       15 POPC  C1B      177   0.00
   178 C1       15 POPC  C2B      178   0.00
   179 C1       15 POPC  C3B      179   0.00
   180 C1       15 POPC  C4B      180   0.00
   181 Q1       16 POPC  NC3      181   1.00
   182 Q5       16 POPC  PO4      182  -1.00
   183 SN4a     16 POPC  GL1      183   0.00
   184 N4a      16 POPC  GL2      184   0.00
   185 C1       16 POPC  C1A      185   0.00
   186 C4h      16 POPC  D2A      186   0.00
   187 C1       16 POPC  C3A      187   0.00
   188 C1       16 POPC  C4A      188   0.00
   189 C1       16 POPC  C1B      189   0.00
   190 C1       16 POPC  C2B      190   0.00
   191 C1       16 POPC  C3B      191   0.00
   192 C1       16 POPC  C4B      192   0.00
   193 Q1       17 POPC  NC3      193   1.00
   194 Q5       17 POPC  PO4      194  -1.00
   195 SN4a     17 POPC  GL1      195   0.00
   196 N4a      17 POPC  GL2      196   0.00
   197 C1       17 POPC  C1A      197   0.00
   198 C4h      17 POPC  D2A      198   0.00
   199 C1       17 POPC  C3A      199   0.00
   200 C1       17 POPC  C4A      200   0.00
   201 C1       17 POPC  C1B      201   0.00
   202 C1       17 POPC  C2B      202   0.00
   203 C1       17 POPC  C3B      203   0.00
   204 C1       17 POPC  C4B      204   0.00
   205 Q1       18 POPC  NC3      205   1.00
   206 Q5       18 POPC  PO4      206  -1.00
   207 SN4a     18 POPC  GL1      207   0.00
   208 N4a      18 POPC  GL2      208   0.00
   209 C1       18 POPC  C1A      209   0.00
   210 C4h      18 POPC  D2A      210   0.00
   211 C1       18 POPC  C3A      211   0.00
   212 C1       18 POPC  C4A      212   0.00
   213 C1       18 POPC  C1B      213   0.00
   214 C1       18 POPC  C2B      214   0.00
   215 C1       18 POPC  C3B      215   0.00
   216 C1       18 POPC  C4B      216   0.00
   217 Q1       19 POPC  NC3      217   1.00
   218 Q5       19 POPC  PO4      218  -1.00
   219 SN4a     19 POPC  GL1      219   0.00
   220 N4a      19 POPC  GL2      220   0.00
   221 C1       19 POPC  C1A      221   0.00
   222 C4h      19 POPC  D2A      222   0.00
   223 C1       19 POPC  C3A      223   0.00
   224 C1       19 POPC  C4A      224   0.00
   225 C1       19 POPC  C1B      225   0.00
   226 C1       19 POPC  C2B      226   0.00
   227 C1       19 POPC  C3B      227   0.00
   228 C1       19 POPC  C4B      228   0.00
   229 Q1       20 POPC  NC3      229   1.00
   230 Q5       20 POPC  PO4      230  -1.00
   231 SN4a     20 POPC  GL1      231   0.00
   232 N4a      20 POPC  GL2      232   0.00
   233 C1       20 POPC  C1A      233   0.00
   234 C4h      20 POPC  D2A      234   0.00
   235 C1       20 POPC  C3A      235   0.00
   236 C1       20 POPC  C4A      236   0.00
   237 C1       20 POPC  C1B      237   0.00
   238 C1       20 POPC  C2B      238   0.00
   239 C1       20 POPC  C3B      239   0.00
   240 C1       20 POPC  C4B      240   0.00
   241 Q1       21 POPC  NC3      241   1.00
   242 Q5       21 POPC  PO4      242  -1.00
   243 SN4a     21 POPC  GL1      243   0.00
   244 N4a      21 POPC  GL2      244   0.00
   245 C1       21 POPC  C1A      245   0.00
   246 C4h      21 POPC  D2A      246   0.00
   247 C1       21 POPC  C3A      247   0.00
   248 C1       21 POPC  C4A      248   0.00
   249 C1       21 POPC  C1B      249   0.00
   250 C1       21 POPC  C2B      250   0.00
   251 C1       21 POPC  C3B      251   0.00
   252 C1       21 POPC  C4B      252   0.00
   253 Q1       22 POPC  NC3      253   1.00
   254 Q5       22 POPC  PO4      254  -1.00
   255 SN4a     22 POPC  GL1      255   0.00
   256 N4a      22 POPC  GL2      256   0.00
   257 C1       22 POPC  C1A      257   0.00
   258 C4h      22 POPC  D2A      258   0.00
   259 C1       22 POPC  C3A      259   0.00
   260 C1       22 POPC  C4A      260   0.00
   261 C1       22 POPC  C1B      261   0.00
   262 C1       22 POPC  C2B      262   0.00
   263 C1       22 POPC  C3B      263   0.00
   264 C1       22 POPC  C4B      264   0.00
   265 Q1       23 POPC  NC3      265   1.00
   266 Q5       23 POPC  PO4      266  -1.00
   267 SN4a     23 POPC  GL1      267   0.00
   268 N4a      23 POPC  GL2      268   0.00
   269 C1       23 POPC  C1A      269   0.00
   270 C4h      23 POPC  D2A      270   0.00
   271 C1       23 POPC  C3A      271   0.00
   272 C1       23 POPC  C4A      272   0.00
   273 C1       23 POPC  C1B      273   0.00
   274 C1       23 POPC  C2B      274   0.00
   275 C1       23 POPC  C3B      275   0.00
   276 C1       23 POPC  C4B      276   0.00
   277 Q1       24 POPC  NC3      277   1.00
   278 Q5       24 POPC  PO4      278  -1.00
   279 SN4a     24 POPC  GL1      279   0.00
   280 N4a      24 POPC  GL2      280   0.00
   281 C1       24 POPC  C1A      281   0.00
   282 C4h      24 POPC  D2A      282   0.00
   283 C1       24 POPC  C3A      283   0.00
   284 C1       24 POPC  C4A      284   0.00
   285 C1       24 POPC  C1B      285   0.00
   286 C1       24 POPC  C2B      286   0.00
   287 C1       24 POPC  C3B      287   0.00
   288 C1       24 POPC  C4B      288   0.00
   289 Q1       25 POPC  NC3      289   1.00
   290 Q5       25 POPC  PO4      290  -1.00
   291 SN4a     25 POPC  GL1      291   0.00
   292 N4a      25 POPC  GL2      292   0.00
   293 C1       25 POPC  C1A      293   0.00
   294 C4h      25 POPC  D2A      294   0.00
   295 C1       25 POPC  C3A      295   0.00
   296 C1       25 POPC  C4A      296   0.00
   297 C1       25 POPC  C1B      297   0.00
   298 C1       25 POPC  C2B      298   0.00
   299 C1       25 POPC  C3B      299   0.00
   300 C1       25 POPC  C4B      300   0.00
   301 Q1       26 POPC  NC3      301   1.00
   302 Q5       26 POPC  PO4      302  -1.00
   303 SN4a     26 POPC  GL1      303   0.00
   304 N4a      26 POPC  GL2      304   0.00
   305 C1       26 POPC  C1A      305   0.00
   306 C4h      26 POPC  D2A      306   0.00
   307 C1       26 POPC  C3A      307   0.00
   308 C1       26 POPC  C4A      308   0.00
   309 C1       26 POPC  C1B      309   0.00
   310 C1       26 POPC  C2B      310   0.00
   311 C1       26 POPC  C3B      311   0.00
   312 C1       26 POPC  C4B      312   0.00
   313 Q1       27 POPC  NC3      313   1.00
   314 Q5       27 POPC  PO4      314  -1.00
   315 SN4a     27 POPC  GL1      315   0.00
   316 N4a      27 POPC  GL2      316   0.00
   317 C1       27 POPC  C1A      317   0.00
   318 C4h      27 POPC  D2A      318   0.00
   319 C1       27 POPC  C3A      319   0.00
   320 C1       27 POPC  C4A      320   0.00
   321 C1       27 POPC  C1B      321   0.00
   322 C1       27 POPC  C2B      322   0.00
   323 C1       27 POPC  C3B      323   0.00
   324 C1       27 POPC  C4B      324   0.00
   325 Q1       28 POPC  NC3      325   1.00
   326 Q5       28 POPC  PO4      326  -1.00
   327 SN4a     28 POPC  GL1      327   0.00
   328 N4a      28 POPC  GL2      328   0.00
   329 C1       28 POPC  C1A      329   0.00
   330 C4h      28 POPC  D2A      330   0.00
   331 C1       28 POPC  C3A      331   0.00
   332 C1       28 POPC  C4A      332   0.00
   333 C1       28 POPC  C1B      333   0.00
   334 C1       28 POPC  C2B      334   0.00
   335 C1       28 POPC  C3B      335   0.00
   336 C1       28 POPC  C4B      336   0.00
   337 Q1       29 POPC  NC3      337   1.00
   338 Q5       29 POPC  PO4      338  -1.00
   339 SN4a     29 POPC  GL1      339   0.00
   340 N4a      29 POPC  GL2      340   0.00
   341 C1       29 POPC  C1A      341   0.00
   342 C4h      29 POPC  D2A      342   0.00
   343 C1       29 POPC  C3A      343   0.00
   344 C1       29 POPC  C4A      344   0.00
   345 C1       29 POPC  C1B      345   0.00
   346 C1       29 POPC  C2B      346   0.00
   347 C1       29 POPC  C3B      347   0.00
   348 C1       29 POPC  C4B      348   0.00
   349 Q1       30 POPC  NC3      349   1.00
   350 Q5       30 POPC  PO4      350  -1.00
   351 SN4a     30 POPC  GL1      351   0.00
   352 N4a      30 POPC  GL2      352   0.00
   353 C1       30 POPC  C1A      353   0.00
   354 C4h      30 POPC  D2A      354   0.00
   355 C1       30 POPC  C3A      355   0.00
   356 C1       30 POPC  C4A      356   0.00
   357 C1       30 POPC  C1B      357   0.00
   358 C1       30 POPC  C2B      358   0.00
   359 C1       30 POPC  C3B      359   0.00
   360 C1       30 POPC  C4B      360   0.00
   361 Q1       31 POPC  NC3      361   1.00
   362 Q5       31 POPC  PO4      362  -1.00
   363 SN4a     31 POPC  GL1      363   0.00
   364 N4a      31 POPC  GL2      364   0.00
   365 C1       31 POPC  C1A      365   0.00
   366 C4h      31 POPC  D2A      366   0.00
   367 C1       31 POPC  C3A      367   0.00
   368 C1       31 POPC  C4A      368   0.00
   369 C1       31 POPC  C1B      369   0.00
   370 C1       31 POPC  C2B      370   0.00
   371 C1       31 POPC  C3B      371   0.00
   372 C1       31 POPC  C4B      372   0.00
   373 Q1       32 POPC  NC3      373   1.00
   374 Q5       32 POPC  PO4      374  -1.00
   375 SN4a     32 POPC  GL1      375   0.00
   376 N4a      32 POPC  GL2      376   0.00
   377 C1       32 POPC  C1A      377   0.00
   378 C4h      32 POPC  D2A      378   0.00
   379 C1       32 POPC  C3A      379   0.00
   380 C1       32 POPC  C4A      380   0.00
   381 C1       32 POPC  C1B      381   0.00
   382 C1       32 POPC  C2B      382   0.00
   383 C1       32 POPC  C3B      383   0.00
   384 C1       32 POPC  C4B      384   0.00
   385 Q1       33 POPC  NC3      385   1.00
   386 Q5       33 POPC  PO4      386  -1.00
   387 SN4a     33 POPC  GL1      387   0.00
   388 N4a      33 POPC  GL2      388   0.00
   389 C1       33 POPC  C1A      389   0.00
   390 C4h      33 POPC  D2A      390   0.00
   391 C1       33 POPC  C3A      391   0.00
   392 C1       33 POPC  C4A      392   0.00
   393 C1       33 POPC  C1B      393   0.00
   394 C1       33 POPC  C2B      394   0.00
   395 C1       33 POPC  C3B      395   0.00
   396 C1       33 POPC  C4B      396   0.00
   397 Q1       34 POPC  NC3      397   1.00
   398 Q5       34 POPC  PO4      398  -1.00
   399 SN4a     34 POPC  GL1      399   0.00
   400 N4a      34 POPC  GL2      400   0.00
   401 C1       34 POPC  C1A      401   0.00
   402 C4h      34 POPC  D2A      402   0.00
   403 C1       34 POPC  C3A      403   0.00
   404 C1       34 POPC  C4A      404   0.00
   405 C1       34 POPC  C1B      405   0.00
   406 C1       34 POPC  C2B      406   0.00
   407 C1       34 POPC  C3B      407   0.00
   408 C1       34 POPC  C4B      408   0.00
   409 Q1       35 POPC  NC3      409   1.00
   410 Q5       35 POPC  PO4      410  -1.00
   411 SN4a     35 POPC  GL1      411   0.00
   412 N4a      35 POPC  GL2      412   0.00
   413 C1       35 POPC  C1A      413   0.00
   414 C4h      35 POPC  D2A      414   0.00
   415 C1       35 POPC  C3A      415   0.00
   416 C1       35 POPC  C4A      416   0.00
   417 C1       35 POPC  C1B      417   0.00
   418 C1       35 POPC  C2B      418   0.00
   419 C1       35 POPC  C3B      419   0.00
   420 C1       35 POPC  C4B      420   0.00
   421 Q1       36 POPC  NC3      421   1.00
   422 Q5       36 POPC  PO4      422  -1.00
   423 SN4a     36 POPC  GL1      423   0.00
   424 N4a      36 POPC  GL2      424   0.00
   425 C1       36 POPC  C1A      425   0.00
   426 C4h      36 POPC  D2A      426   0.00
   427 C1       36 POPC  C3A      427   0.00
   428 C1       36 POPC  C4A      428   0.00
   429 C1       36 POPC  C1B      429   0.00
   430 C1       36 POPC  C2B      430   0.00
   431 C1       36 POPC  C3B      431   0.00
   432 C1       36 POPC  C4B      432   0.00
   433 Q1       37 POPC  NC3      433   1.00
   434 Q5       37 POPC  PO4      434  -1.00
   435 SN4a     37 POPC  GL1      435   0.00
   436 N4a      37 POPC  GL2      436   0.00
   437 C1       37 POPC  C1A      437   0.00
   438 C4h      37 POPC  D2A      438   0.00
   439 C1       37 POPC  C3A      439   0.00
   440 C1       37 POPC  C4A      440   0.00
   441 C1       37 POPC  C1B      441   0.00
   442 C1       37 POPC  C2B      442   0.00
   443 C1       37 POPC  C3B      443   0.00
   444 C1       37 POPC  C4B      444   0.00
   445 Q1       38 POPC  NC3      445   1.00
   446 Q5       38 POPC  PO4      446  -1.00
   447 SN4a     38 POPC  GL1      447   0.00
   448 N4a      38 POPC  GL2      448   0.00
   449 C1       38 POPC  C1A      449   0.00
   450 C4h      38 POPC  D2A      450   0.00
   451 C1       38 POPC  C3A      451   0.00
   452 C1       38 POPC  C4A      452   0.00
   453 C1       38 POPC  C1B      453   0.00
   454 C1       38 POPC  C2B      454   0.00
   455 C1       38 POPC  C3B      455   0.00
   456 C1       38 POPC  C4B      456   0.00
   457 Q1       39 POPC  NC3      457   1.00
   458 Q5       39 POPC  PO4      458  -1.00
   459 SN4a     39 POPC  GL1      459   0.00
   460 N4a      39 POPC  GL2      460   0.00
   461 C1       39 POPC  C1A      461   0.00
   462 C4h      39 POPC  D2A      462   0.00
   463 C1       39 POPC  C3A      463   0.00
   464 C1       39 POPC  C4A      464   0.00
   465 C1       39 POPC  C1B      465   0.00
   466 C1       39 POPC  C2B      466   0.00
   467 C1       39 POPC  C3B      467   0.00
   468 C1       39 POPC  C4B      468   0.00
   469 Q1       40 POPC  NC3      469   1.00
   470 Q5       40 POPC  PO4      470  -1.00
   471 SN4a     40 POPC  GL1      471   0.00
   472 N4a      40 POPC  GL2      472   0.00
   473 C1       40 POPC  C1A      473   0.00
   474 C4h      40 POPC  D2A      474   0.00
   475 C1       40 POPC  C3A      475   0.00
   476 C1       40 POPC  C4A      476   0.00
   477 C1       40 POPC  C1B      477   0.00
   478 C1       40 POPC  C2B      478   0.00
   479 C1       40 POPC  C3B      479   0.00
   480 C1       40 POPC  C4B      480   0.00
   481 Q1       41 POPC  NC3      481   1.00
   482 Q5       41 POPC  PO4      482  -1.00
   483 SN4a     41 POPC  GL1      483   0.00
   484 N4a      41 POPC  GL2      484   0.00
   485 C1       41 POPC  C1A      485   0.00
   486 C4h      41 POPC  D2A      486   0.00
   487 C1       41 POPC  C3A      487   0.00
   488 C1       41 POPC  C4A      488   0.00
   489 C1       41 POPC  C1B      489   0.00
   490 C1       41 POPC  C2B      490   0.00
   491 C1       41 POPC  C3B      491   0.00
   492 C1       41 POPC  C4B      492   0.00
   493 Q1       42 POPC  NC3      493   1.00
   494 Q5       42 POPC  PO4      494  -1.00
   495 SN4a     42 POPC  GL1      495   0.00
   496 N4a      42 POPC  GL2      496   0.00
   497 C1       42 POPC  C1A      497   0.00
   498 C4h      42 POPC  D2A      498   0.00
   499 C1       42 POPC  C3A      499   0.00
   500 C1       42 POPC  C4A      500   0.00
   501 C1       42 POPC  C1B      501   0.00
   502 C1       42 POPC  C2B      502   0.00
   503 C1       42 POPC  C3B      503   0.00
   504 C1       42 POPC  C4B      504   0.00
   505 Q1       43 POPC  NC3      505   1.00
   506 Q5       43 POPC  PO4      506  -1.00
   507 SN4a     43 POPC  GL1      507   0.00
   508 N4a      43 POPC  GL2      508   0.00
   509 C1       43 POPC  C1A      509   0.00
   510 C4h      43 POPC  D2A      510   0.00
   511 C1       43 POPC  C3A      511   0.00
   512 C1       43 POPC  C4A      512   0.00
   513 C1       43 POPC  C1B      513   0.00
   514 C1       43 POPC  C2B      514   0.00
   515 C1       43 POPC  C3B      515   0.00
   516 C1       43 POPC  C4B      516   0.00
   517 Q1       44 POPC  NC3      517   1.00
   518 Q5       44 POPC  PO4      518  -1.00
   519 SN4a     44 POPC  GL1      519   0.00
   520 N4a      44 POPC  GL2      520   0.00
   521 C1       44 POPC  C1A      521   0.00
   522 C4h      44 POPC  D2A      522   0.00
   523 C1       44 POPC  C3A      523   0.00
   524 C1       44 POPC  C4A      524   0.00
   525 C1       44 POPC  C1B      525   0.00
   526 C1       44 POPC  C2B      526   0.00
   527 C1       44 POPC  C3B      527   0.00
   528 C1       44 POPC  C4B      528   0.00
   529 Q1       45 POPC  NC3      529   1.00
   530 Q5       45 POPC  PO4      530  -1.00
   531 SN4a     45 POPC  GL1      531   0.00
   532 N4a      45 POPC  GL2      532   0.00
   533 C1       45 POPC  C1A      533   0.00
   534 C4h      45 POPC  D2A      534   0.00
   535 C1       45 POPC  C3A      535   0.00
   536 C1       45 POPC  C4A      536   0.00
   537 C1       45 POPC  C1B      537   0.00
   538 C1       45 POPC  C2B      538   0.00
   539 C1       45 POPC  C3B      539   0.00
   540 C1       45 POPC  C4B      540   0.00
   541 Q1       46 POPC  NC3      541   1.00
   542 Q5       46 POPC  PO4      542  -1.00
   543 SN4a     46 POPC  GL1      543   0.00
   544 N4a      46 POPC  GL2      544   0.00
   545 C1       46 POPC  C1A      545   0.00
   546 C4h      46 POPC  D2A      546   0.00
   547 C1       46 POPC  C3A      547   0.00
   548 C1       46 POPC  C4A      548   0.00
   549 C1       46 POPC  C1B      549   0.00
   550 C1       46 POPC  C2B      550   0.00
   551 C1       46 POPC  C3B      551   0.00
   552 C1       46 POPC  C4B      552   0.00
   553 Q1       47 POPC  NC3      553   1.00
   554 Q5       47 POPC  PO4      554  -1.00
   555 SN4a     47 POPC  GL1      555   0.00
   556 N4a      47 POPC  GL2      556   0.00
   557 C1       47 POPC  C1A      557   0.00
   558 C4h      47 POPC  D2A      558   0.00
   559 C1       47 POPC  C3A      559   0.00
   560 C1       47 POPC  C4A      560   0.00
   561 C1       47 POPC  C1B      561   0.00
   562 C1       47 POPC  C2B      562   0.00
   563 C1       47 POPC  C3B      563   0.00
   564 C1       47 POPC  C4B      564   0.00
   565 Q1       48 POPC  NC3      565   1.00
   566 Q5       48 POPC  PO4      566  -1.00
   567 SN4a     48 POPC  GL1      567   0.00
   568 N4a      48 POPC  GL2      568   0.00
   569 C1       48 POPC  C1A      569   0.00
   570 C4h      48 POPC  D2A      570   0.00
   571 C1       48 POPC  C3A      571   0.00
   572 C1       48 POPC  C4A      572   0.00
   573 C1       48 POPC  C1B      573   0.00
   574 C1       48 POPC  C2B      574   0.00
   575 C1       48 POPC  C3B      575   0.00
   576 C1       48 POPC  C4B      576   0.00
   577 Q1       49 POPC  NC3      577   1.00
   578 Q5       49 POPC  PO4      578  -1.00
   579 SN4a     49 POPC  GL1      579   0.00
   580 N4a      49 POPC  GL2      580   0.00
   581 C1       49 POPC  C1A      581   0.00
   582 C4h      49 POPC  D2A      582   0.00
   583 C1       49 POPC  C3A      583   0.00
   584 C1       49 POPC  C4A      584   0.00
   585 C1       49 POPC  C1B      585   0.00
   586 C1       49 POPC  C2B      586   0.00
   587 C1       49 POPC  C3B      587   0.00
   588 C1       49 POPC  C4B      588   0.00
   589 Q1       50 POPC  NC3      589   1.00
   590 Q5       50 POPC  PO4      590  -1.00
   591 SN4a     50 POPC  GL1      591   0.00
   592 N4a      50 POPC  GL2      592   0.00
   593 C1       50 POPC  C1A      593   0.00
   594 C4h      50 POPC  D2A      594   0.00
   595 C1       50 POPC  C3A      595   0.00
   596 C1       50 POPC  C4A      596   0.00
   597 C1       50 POPC  C1B      597   0.00
   598 C1       50 POPC  C2B      598   0.00
   599 C1       50 POPC  C3B      599   0.00
   600 C1       50 POPC  C4B      600   0.00
   601 Q1       51 POPC  NC3      601   1.00
   602 Q5       51 POPC  PO4      602  -1.00
   603 SN4a     51 POPC  GL1      603   0.00
   604 N4a      51 POPC  GL2      604   0.00
   605 C1       51 POPC  C1A      605   0.00
   606 C4h      51 POPC  D2A      606   0.00
   607 C1       51 POPC  C3A      607   0.00
   608 C1       51 POPC  C4A      608   0.00
   609 C1       51 POPC  C1B      609   0.00
   610 C1       51 POPC  C2B      610   0.00
   611 C1       51 POPC  C3B      611   0.00
   612 C1       51 POPC  C4B      612   0.00
   613 Q1       52 POPC  NC3      613   1.00
   614 Q5       52 POPC  PO4      614  -1.00
   615 SN4a     52 POPC  GL1      615   0.00
   616 N4a      52 POPC  GL2      616   0.00
   617 C1       52 POPC  C1A      617   0.00
   618 C4h      52 POPC  D2A      618   0.00
   619 C1       52 POPC  C3A      619   0.00
   620 C1       52 POPC  C4A      620   0.00
   621 C1       52 POPC  C1B      621   0.00
   622 C1       52 POPC  C2B      622   0.00
   623 C1       52 POPC  C3B      623   0.00
   624 C1       52 POPC  C4B      624   0.00
   625 Q1       53 POPC  NC3      625   1.00
   626 Q5       53 POPC  PO4      626  -1.00
   627 SN4a     53 POPC  GL1      627   0.00
   628 N4a      53 POPC  GL2      628   0.00
   629 C1       53 POPC  C1A      629   0.00
   630 C4h      53 POPC  D2A      630   0.00
   631 C1       53 POPC  C3A      631   0.00
   632 C1       53 POPC  C4A      632   0.00
   633 C1       53 POPC  C1B      633   0.00
   634 C1       53 POPC  C2B      634   0.00
   635 C1       53 POPC  C3B      635   0.00
   636 C1       53 POPC  C4B      636   0.00
   637 Q1       54 POPC  NC3      637   1.00
   638 Q5       54 POPC  PO4      638  -1.00
   639 SN4a     54 POPC  GL1      639   0.00
   640 N4a      54 POPC  GL2      640   0.00
   641 C1       54 POPC  C1A      641   0.00
   642 C4h      54 POPC  D2A      642   0.00
   643 C1       54 POPC  C3A      643   0.00
   644 C1       54 POPC  C4A      644   0.00
   645 C1       54 POPC  C1B      645   0.00
   646 C1       54 POPC  C2B      646   0.00
   647 C1       54 POPC  C3B      647   0.00
   648 C1       54 POPC  C4B      648   0.00
   649 Q1       55 POPC  NC3      649   1.00
   650 Q5       55 POPC  PO4      650  -1.00
   651 SN4a     55 POPC  GL1      651   0.00
   652 N4a      55 POPC  GL2      652   0.00
   653 C1       55 POPC  C1A      653   0.00
   654 C4h      55 POPC  D2A      654   0.00
   655 C1       55 POPC  C3A      655   0.00
   656 C1       55 POPC  C4A      656   0.00
   657 C1       55 POPC  C1B      657   0.00
   658 C1       55 POPC  C2B      658   0.00
   659 C1       55 POPC  C3B      659   0.00
   660 C1       55 POPC  C4B      660   0.00
   661 Q1       56 POPC  NC3      661   1.00
   662 Q5       56 POPC  PO4      662  -1.00
   663 SN4a     56 POPC  GL1      663   0.00
   664 N4a      56 POPC  GL2      664   0.00
   665 C1       56 POPC  C1A      665   0.00
   666 C4h      56 POPC  D2A      666   0.00
   667 C1       56 POPC  C3A      667   0.00
   668 C1       56 POPC  C4A      668   0.00
   669 C1       56 POPC  C1B      669   0.00
   670 C1       56 POPC  C2B      670   0.00
   671 C1       56 POPC  C3B      671   0.00
   672 C1       56 POPC  C4B      672   0.00
   673 Q1       57 POPC  NC3      673   1.00
   674 Q5       57 POPC  PO4      674  -1.00
   675 SN4a     57 POPC  GL1      675   0.00
   676 N4a      57 POPC  GL2      676   0.00
   677 C1       57 POPC  C1A      677   0.00
   678 C4h      57 POPC  D2A      678   0.00
   679 C1       57 POPC  C3A      679   0.00
   680 C1       57 POPC  C4A      680   0.00
   681 C1       57 POPC  C1B      681   0.00
   682 C1       57 POPC  C2B      682   0.00
   683 C1       57 POPC  C3B      683   0.00
   684 C1       57 POPC  C4B      684   0.00
   685 Q1       58 POPC  NC3      685   1.00
   686 Q5       58 POPC  PO4      686  -1.00
   687 SN4a     58 POPC  GL1      687   0.00
   688 N4a      58 POPC  GL2      688   0.00
   689 C1       58 POPC  C1A      689   0.00
   690 C4h      58 POPC  D2A      690   0.00
   691 C1       58 POPC  C3A      691   0.00
   692 C1       58 POPC  C4A      692   0.00
   693 C1       58 POPC  C1B      693   0.00
   694 C1       58 POPC  C2B      694   0.00
   695 C1       58 POPC  C3B      695   0.00
   696 C1       58 POPC  C4B      696   0.00
   697 Q1       59 POPC  NC3      697   1.00
   698 Q5       59 POPC  PO4      698  -1.00
   699 SN4a     59 POPC  GL1      699   0.00
   700 N4a      59 POPC  GL2      700   0.00
   701 C1       59 POPC  C1A      701   0.00
   702 C4h      59 POPC  D2A      702   0.00
   703 C1       59 POPC  C3A      703   0.00
   704 C1       59 POPC  C4A      704   0.00
   705 C1       59 POPC  C1B      705   0.00
   706 C1       59 POPC  C2B      706   0.00
   707 C1       59 POPC  C3B      707   0.00
   708 C1       59 POPC  C4B      708   0.00
   709 Q1       60 POPC  NC3      709   1.00
   710 Q5       60 POPC  PO4      710  -1.00
   711 SN4a     60 POPC  GL1      711   0.00
   712 N4a      60 POPC  GL2      712   0.00
   713 C1       60 POPC  C1A      713   0.00
   714 C4h      60 POPC  D2A      714   0.00
   715 C1       60 POPC  C3A      715   0.00
   716 C1       60 POPC  C4A      716   0.00
   717 C1       60 POPC  C1B      717   0.00
   718 C1       60 POPC  C2B      718   0.00
   719 C1       60 POPC  C3B      719   0.00
   720 C1       60 POPC  C4B      720   0.00
   721 Q1       61 POPC  NC3      721   1.00
   722 Q5       61 POPC  PO4      722  -1.00
   723 SN4a     61 POPC  GL1      723   0.00
   724 N4a      61 POPC  GL2      724   0.00
   725 C1       61 POPC  C1A      725   0.00
   726 C4h      61 POPC  D2A      726   0.00
   727 C1       61 POPC  C3A      727   0.00
   728 C1       61 POPC  C4A      728   0.00
   729 C1       61 POPC  C1B      729   0.00
   730 C1       61 POPC  C2B      730   0.00
   731 C1       61 POPC  C3B      731   0.00
   732 C1       61 POPC  C4B      732   0.00
   733 Q1       62 POPC  NC3      733   1.00
   734 Q5       62 POPC  PO4      734  -1.00
   735 SN4a     62 POPC  GL1      735   0.00
   736 N4a      62 POPC  GL2      736   0.00
   737 C1       62 POPC  C1A      737   0.00
   738 C4h      62 POPC  D2A      738   0.00
   739 C1       62 POPC  C3A      739   0.00
   740 C1       62 POPC  C4A      740   0.00
   741 C1       62 POPC  C1B      741   0.00
   742 C1       62 POPC  C2B      742   0.00
   743 C1       62 POPC  C3B      743   0.00
   744 C1       62 POPC  C4B      744   0.00
   745 Q1       63 POPC  NC3      745   1.00
   746 Q5       63 POPC  PO4      746  -1.00
   747 SN4a     63 POPC  GL1      747   0.00
   748 N4a      63 POPC  GL2      748   0.00
   749 C1       63 POPC  C1A      749   0.00
   750 C4h      63 POPC  D2A      750   0.00
   751 C1       63 POPC  C3A      751   0.00
   752 C1       63 POPC  C4A      752   0.00
   753 C1       63 POPC  C1B      753   0.00
   754 C1       63 POPC  C2B      754   0.00
   755 C1       63 POPC  C3B      755   0.00
   756 C1       63 POPC  C4B      756   0.00
   757 Q1       64 POPC  NC3      757   1.00
   758 Q5       64 POPC  PO4      758  -1.00
   759 SN4a     64 POPC  GL1      759   0.00
   760 N4a      64 POPC  GL2      760   0.00
   761 C1       64 POPC  C1A      761   0.00
   762 C4h      64 POPC  D2A      762   0.00
   763 C1       64 POPC  C3A      763   0.00
   764 C1       64 POPC  C4A      764   0.00
   765 C1       64 POPC  C1B      765   0.00
   766 C1       64 POPC  C2B      766   0.00
   767 C1       64 POPC  C3B      767   0.00
   768 C1       64 POPC  C4B      768   0.00
   769 Q1       65 POPC  NC3      769   1.00
   770 Q5       65 POPC  PO4      770  -1.00
   771 SN4a     65 POPC  GL1      771   0.00
   772 N4a      65 POPC  GL2      772   0.00
   773 C1       65 POPC  C1A      773   0.00
   774 C4h      65 POPC  D2A      774   0.00
   775 C1       65 POPC  C3A      775   0.00
   776 C1       65 POPC  C4A      776   0.00
   777 C1       65 POPC  C1B      777   0.00
   778 C1       65 POPC  C2B      778   0.00
   779 C1       65 POPC  C3B      779   0.00
   780 C1       65 POPC  C4B      780   0.00
   781 Q1       66 POPC  NC3      781   1.00
   782 Q5       66 POPC  PO4      782  -1.00
   783 SN4a     66 POPC  GL1      783   0.00
   784 N4a      66 POPC  GL2      784   0.00
   785 C1       66 POPC  C1A      785   0.00
   786 C4h      66 POPC  D2A      786   0.00
   787 C1       66 POPC  C3A      787   0.00
   788 C1       66 POPC  C4A      788   0.00
   789 C1       66 POPC  C1B      789   0.00
   790 C1       66 POPC  C2B      790   0.00
   791 C1       66 POPC  C3B      791   0.00
   792 C1       66 POPC  C4B      792   0.00
   793 Q1       67 POPC  NC3      793   1.00
   794 Q5       67 POPC  PO4      794  -1.00
   795 SN4a     67 POPC  GL1      795   0.00
   796 N4a      67 POPC  GL2      796   0.00
   797 C1       67 POPC  C1A      797   0.00
   798 C4h      67 POPC  D2A      798   0.00
   799 C1       67 POPC  C3A      799   0.00
   800 C1       67 POPC  C4A      800   0.00
   801 C1       67 POPC  C1B      801   0.00
   802 C1       67 POPC  C2B      802   0.00
   803 C1       67 POPC  C3B      803   0.00
   804 C1       67 POPC  C4B      804   0.00
   805 Q1       68 POPC  NC3      805   1.00
   806 Q5       68 POPC  PO4      806  -1.00
   807 SN4a     68 POPC  GL1      807   0.00
   808 N4a      68 POPC  GL2      808   0.00
   809 C1       68 POPC  C1A      809   0.00
   810 C4h      68 POPC  D2A      810   0.00
   811 C1       68 POPC  C3A      811   0.00
   812 C1       68 POPC  C4A      812   0.00
   813 C1       68 POPC  C1B      813   0.00
   814 C1       68 POPC  C2B      814   0.00
   815 C1       68 POPC  C3B      815   0.00
   816 C1       68 POPC  C4B      816   0.00
   817 Q1       69 POPC  NC3      817   1.00
   818 Q5       69 POPC  PO4      818  -1.00
   819 SN4a     69 POPC  GL1      819   0.00
   820 N4a      69 POPC  GL2      820   0.00
   821 C1       69 POPC  C1A      821   0.00
   822 C4h      69 POPC  D2A      822   0.00
   823 C1       69 POPC  C3A      823   0.00
   824 C1       69 POPC  C4A      824   0.00
   825 C1       69 POPC  C1B      825   0.00
   826 C1       69 POPC  C2B      826   0.00
   827 C1       69 POPC  C3B      827   0.00
   828 C1       69 POPC  C4B      828   0.00
   829 Q1       70 POPC  NC3      829   1.00
   830 Q5       70 POPC  PO4      830  -1.00
   831 SN4a     70 POPC  GL1      831   0.00
   832 N4a      70 POPC  GL2      832   0.00
   833 C1       70 POPC  C1A      833   0.00
   834 C4h      70 POPC  D2A      834   0.00
   835 C1       70 POPC  C3A      835   0.00
   836 C1       70 POPC  C4A      836   0.00
   837 C1       70 POPC  C1B      837   0.00
   838 C1       70 POPC  C2B      838   0.00
   839 C1       70 POPC  C3B      839   0.00
   840 C1       70 POPC  C4B      840   0.00
   841 Q1       71 POPC  NC3      841   1.00
   842 Q5       71 POPC  PO4      842  -1.00
   843 SN4a     71 POPC  GL1      843   0.00
   844 N4a      71 POPC  GL2      844   0.00
   845 C1       71 POPC  C1A      845   0.00
   846 C4h      71 POPC  D2A      846   0.00
   847 C1       71 POPC  C3A      847   0.00
   848 C1       71 POPC  C4A      848   0.00
   849 C1       71 POPC  C1B      849   0.00
   850 C1       71 POPC  C2B      850   0.00
   851 C1       71 POPC  C3B      851   0.00
   852 C1       71 POPC  C4B      852   0.00
   853 Q1       72 POPC  NC3      853   1.00
   854 Q5       72 POPC  PO4      854  -1.00
   855 SN4a     72 POPC  GL1      855   0.00
   856 N4a      72 POPC  GL2      856   0.00
   857 C1       72 POPC  C1A      857   0.00
   858 C4h      72 POPC  D2A      858   0.00
   859 C1       72 POPC  C3A      859   0.00
   860 C1       72 POPC  C4A      860   0.00
   861 C1       72 POPC  C1B      861   0.00
   862 C1       72 POPC  C2B      862   0.00
   863 C1       72 POPC  C3B      863   0.00
   864 C1       72 POPC  C4B      864   0.00
   865 Q1       73 POPC  NC3      865   1.00
   866 Q5       73 POPC  PO4      866  -1.00
   867 SN4a     73 POPC  GL1      867   0.00
   868 N4a      73 POPC  GL2      868   0.00
   869 C1       73 POPC  C1A      869   0.00
   870 C4h      73 POPC  D2A      870   0.00
   871 C1       73 POPC  C3A      871   0.00
   872 C1       73 POPC  C4A      872   0.00
   873 C1       73 POPC  C1B      873   0.00
   874 C1       73 POPC  C2B      874   0.00
   875 C1       73 POPC  C3B      875   0.00
   876 C1       73 POPC  C4B      876   0.00
   877 Q1       74 POPC  NC3      877   1.00
   878 Q5       74 POPC  PO4      878  -1.00
   879 SN4a     74 POPC  GL1      879   0.00
   880 N4a      74 POPC  GL2      880   0.00
   881 C1       74 POPC  C1A      881   0.00
   882 C4h      74 POPC  D2A      882   0.00
   883 C1       74 POPC  C3A      883   0.00
   884 C1       74 POPC  C4A      884   0.00
   885 C1       74 POPC  C1B      885   0.00
   886 C1       74 POPC  C2B      886   0.00
   887 C1       74 POPC  C3B      887   0.00
   888 C1       74 POPC  C4B      888   0.00
   889 Q1       75 POPC  NC3      889   1.00
   890 Q5       75 POPC  PO4      890  -1.00
   891 SN4a     75 POPC  GL1      891   0.00
   892 N4a      75 POPC  GL2      892   0.00
   893 C1       75 POPC  C1A      893   0.00
   894 C4h      75 POPC  D2A      894   0.00
   895 C1       75 POPC  C3A      895   0.00
   896 C1       75 POPC  C4A      896   0.00
   897 C1       75 POPC  C1B      897   0.00
   898 C1       75 POPC  C2B      898   0.00
   899 C1       75 POPC  C3B      899   0.00
   900 C1       75 POPC  C4B      900   0.00
   901 Q1       76 POPC  NC3      901   1.00
   902 Q5       76 POPC  PO4      902  -1.00
   903 SN4a     76 POPC  GL1      903   0.00
   904 N4a      76 POPC  GL2      904   0.00
   905 C1       76 POPC  C1A      905   0.00
   906 C4h      76 POPC  D2A      906   0.00
   907 C1       76 POPC  C3A      907   0.00
   908 C1       76 POPC  C4A      908   0.00
   909 C1       76 POPC  C1B      909   0.00
   910 C1       76 POPC  C2B      910   0.00
   911 C1       76 POPC  C3B      911   0.00
   912 C1       76 POPC  C4B      912   0.00
   913 Q1       77 POPC  NC3      913   1.00
   914 Q5       77 POPC  PO4      914  -1.00
   915 SN4a     77 POPC  GL1      915   0.00
   916 N4a      77 POPC  GL2      916   0.00
   917 C1       77 POPC  C1A      917   0.00
   918 C4h      77 POPC  D2A      918   0.00
   919 C1       77 POPC  C3A      919   0.00
   920 C1       77 POPC  C4A      920   0.00
   921 C1       77 POPC  C1B      921   0.00
   922 C1       77 POPC  C2B      922   0.00
   923 C1       77 POPC  C3B      923   0.00
   924 C1       77 POPC  C4B      924   0.00
   925 Q1       78 POPC  NC3      925   1.00
   926 Q5       78 POPC  PO4      926  -1.00
   927 SN4a     78 POPC  GL1      927   0.00
   928 N4a      78 POPC  GL2      928   0.00
   929 C1       78 POPC  C1A      929   0.00
   930 C4h      78 POPC  D2A      930   0.00
   931 C1       78 POPC  C3A      931   0.00
   932 C1       78 POPC  C4A      932   0.00
   933 C1       78 POPC  C1B      933   0.00
   934 C1       78 POPC  C2B      934   0.00
   935 C1       78 POPC  C3B      935   0.00
   936 C1       78 POPC  C4B      936   0.00
   937 Q1       79 POPC  NC3      937   1.00
   938 Q5       79 POPC  PO4      938  -1.00
   939 SN4a     79 POPC  GL1      939   0.00
   940 N4a      79 POPC  GL2      940   0.00
   941 C1       79 POPC  C1A      941   0.00
   942 C4h      79 POPC  D2A      942   0.00
   943 C1       79 POPC  C3A      943   0.00
   944 C1       79 POPC  C4A      944   0.00
   945 C1       79 POPC  C1B      945   0.00
   946 C1       79 POPC  C2B      946   0.00
   947 C1       79 POPC  C3B      947   0.00
   948 C1       79 POPC  C4B      948   0.00
   949 Q1       80 POPC  NC3      949   1.00
   950 Q5       80 POPC  PO4      950  -1.00
   951 SN4a     80 POPC  GL1      951   0.00
   952 N4a      80 POPC  GL2      952   0.00
   953 C1       80 POPC  C1A      953   0.00
   954 C4h      80 POPC  D2A      954   0.00
   955 C1       80 POPC  C3A      955   0.00
   956 C1       80 POPC  C4A      956   0.00
   957 C1       80 POPC  C1B      957   0.00
   958 C1       80 POPC  C2B      958   0.00
   959 C1       80 POPC  C3B      959   0.00
   960 C1       80 POPC  C4B      960   0.00
   961 Q1       81 POPC  NC3      961   1.00
   962 Q5       81 POPC  PO4      962  -1.00
   963 SN4a     81 POPC  GL1      963   0.00
   964 N4a      81 POPC  GL2      964   0.00
   965 C1       81 POPC  C1A      965   0.00
   966 C4h      81 POPC  D2A      966   0.00
   967 C1       81 POPC  C3A      967   0.00
   968 C1       81 POPC  C4A      968   0.00
   969 C1       81 POPC  C1B      969   0.00
   970 C1       81 POPC  C2B      970   0.00
   971 C1       81 POPC  C3B      971   0.00
   972 C1       81 POPC  C4B      972   0.00
   973 Q1       82 POPC  NC3      973   1.00
   974 Q5       82 POPC  PO4      974  -1.00
   975 SN4a     82 POPC  GL1      975   0.00
   976 N4a      82 POPC  GL2      976   0.00
   977 C1       82 POPC  C1A      977   0.00
   978 C4h      82 POPC  D2A      978   0.00
   979 C1       82 POPC  C3A      979   0.00
   980 C1       82 POPC  C4A      980   0.00
   981 C1       82 POPC  C1B      981   0.00
   982 C1       82 POPC  C2B      982   0.00
   983 C1       82 POPC  C3B      983   0.00
   984 C1       82 POPC  C4B      984   0.00
   985 Q1       83 POPC  NC3      985   1.00
   986 Q5       83 POPC  PO4      986  -1.00
   987 SN4a     83 POPC  GL1      987   0.00
   988 N4a      83 POPC  GL2      988   0.00
   989 C1       83 POPC  C1A      989   0.00
   990 C4h      83 POPC  D2A      990   0.00
   991 C1       83 POPC  C3A      991   0.00
   992 C1       83 POPC  C4A      992   0.00
   993 C1       83 POPC  C1B      993   0.00
   994 C1       83 POPC  C2B      994   0.00
   995 C1       83 POPC  C3B      995   0.00
   996 C1       83 POPC  C4B      996   0.00
   997 Q1       84 POPC  NC3      997   1.00
   998 Q5       84 POPC  PO4      998  -1.00
   999 SN4a     84 POPC  GL1      999   0.00
  1000 N4a      84 POPC  GL2     1000   0.00
  1001 C1       84 POPC  C1A     1001   0.00
  1002 C4h      84 POPC  D2A     1002   0.00
  1003 C1       84 POPC  C3A     1003   0.00
  1004 C1       84 POPC  C4A     1004   0.00
  1005 C1       84 POPC  C1B     1005   0.00
  1006 C1       84 POPC  C2B     1006   0.00
  1007 C1       84 POPC  C3B     1007   0.00
  1008 C1       84 POPC  C4B     1008   0.00
  1009 Q1       85 POPC  NC3     1009   1.00
  1010 Q5       85 POPC  PO4     1010  -1.00
  1011 SN4a     85 POPC  GL1     1011   0.00
  1012 N4a      85 POPC  GL2     1012   0.00
  1013 C1       85 POPC  C1A     1013   0.00
  1014 C4h      85 POPC  D2A     1014   0.00
  1015 C1       85 POPC  C3A     1015   0.00
  1016 C1       85 POPC  C4A     1016   0.00
  1017 C1       85 POPC  C1B     1017   0.00
  1018 C1       85 POPC  C2B     1018   0.00
  1019 C1       85 POPC  C3B     1019   0.00
  1020 C1       85 POPC  C4B     1020   0.00
  1021 Q1       86 POPC  NC3     1021   1.00
  1022 Q5       86 POPC  PO4     1022  -1.00
  1023 SN4a     86 POPC  GL1     1023   0.00
  1024 N4a      86 POPC  GL2     1024   0.00
  1025 C1       86 POPC  C1A     1025   0.00
  1026 C4h      86 POPC  D2A     1026   0.00
  1027 C1       86 POPC  C3A     1027   0.00
  1028 C1       86 POPC  C4A     1028   0.00
  1029 C1       86 POPC  C1B     1029   0.00
  1030 C1       86 POPC  C2B     1030   0.00
  1031 C1       86 POPC  C3B     1031   0.00
  1032 C1       86 POPC  C4B     1032   0.00
  1033 Q1       87 POPC  NC3     1033   1.00
  1034 Q5       87 POPC  PO4     1034  -1.00
  1035 SN4a     87 POPC  GL1     1035   0.00
  1036 N4a      87 POPC  GL2     1036   0.00
  1037 C1       87 POPC  C1A     1037   0.00
  1038 C4h      87 POPC  D2A     1038   0.00
  1039 C1       87 POPC  C3A     1039   0.00
  1040 C1       87 POPC  C4A     1040   0.00
  1041 C1       87 POPC  C1B     1041   0.00
  1042 C1       87 POPC  C2B     1042   0.00
  1043 C1       87 POPC  C3B     1043   0.00
  1044 C1       87 POPC  C4B     1044   0.00
  1045 Q1       88 POPC  NC3     1045   1.00
  1046 Q5       88 POPC  PO4     1046  -1.00
  1047 SN4a     88 POPC  GL1     1047   0.00
  1048 N4a      88 POPC  GL2     1048   0.00
  1049 C1       88 POPC  C1A     1049   0.00
  1050 C4h      88 POPC  D2A     1050   0.00
  1051 C1       88 POPC  C3A     1051   0.00
  1052 C1       88 POPC  C4A     1052   0.00
  1053 C1       88 POPC  C1B     1053   0.00
  1054 C1       88 POPC  C2B     1054   0.00
  1055 C1       88 POPC  C3B     1055   0.00
  1056 C1       88 POPC  C4B     1056   0.00
  1057 Q1       89 POPC  NC3     1057   1.00
  1058 Q5       89 POPC  PO4     1058  -1.00
  1059 SN4a     89 POPC  GL1     1059   0.00
  1060 N4a      89 POPC  GL2     1060   0.00
  1061 C1       89 POPC  C1A     1061   0.00
  1062 C4h      89 POPC  D2A     1062   0.00
  1063 C1       89 POPC  C3A     1063   0.00
  1064 C1       89 POPC  C4A     1064   0.00
  1065 C1       89 POPC  C1B     1065   0.00
  1066 C1       89 POPC  C2B     1066   0.00
  1067 C1       89 POPC  C3B     1067   0.00
  1068 C1       89 POPC  C4B     1068   0.00
  1069 Q1       90 POPC  NC3     1069   1.00
  1070 Q5       90 POPC  PO4     1070  -1.00
  1071 SN4a     90 POPC  GL1     1071   0.00
  1072 N4a      90 POPC  GL2     1072   0.00
  1073 C1       90 POPC  C1A     1073   0.00
  1074 C4h      90 POPC  D2A     1074   0.00
  1075 C1       90 POPC  C3A     1075   0.00
  1076 C1       90 POPC  C4A     1076   0.00
  1077 C1       90 POPC  C1B     1077   0.00
  1078 C1       90 POPC  C2B     1078   0.00
  1079 C1       90 POPC  C3B     1079   0.00
  1080 C1       90 POPC  C4B     1080   0.00
  1081 Q1       91 POPC  NC3     1081   1.00
  1082 Q5       91 POPC  PO4     1082  -1.00
  1083 SN4a     91 POPC  GL1     1083   0.00
  1084 N4a      91 POPC  GL2     1084   0.00
  1085 C1       91 POPC  C1A     1085   0.00
  1086 C4h      91 POPC  D2A     1086   0.00
  1087 C1       91 POPC  C3A     1087   0.00
  1088 C1       91 POPC  C4A     1088   0.00
  1089 C1       91 POPC  C1B     1089   0.00
  1090 C1       91 POPC  C2B     1090   0.00
  1091 C1       91 POPC  C3B     1091   0.00
  1092 C1       91 POPC  C4B     1092   0.00
  1093 Q1       92 POPC  NC3     1093   1.00
  1094 Q5       92 POPC  PO4     1094  -1.00
  1095 SN4a     92 POPC  GL1     1095   0.00
  1096 N4a      92 POPC  GL2     1096   0.00
  1097 C1       92 POPC  C1A     1097   0.00
  1098 C4h      92 POPC  D2A     1098   0.00
  1099 C1       92 POPC  C3A     1099   0.00
  1100 C1       92 POPC  C4A     1100   0.00
  1101 C1       92 POPC  C1B     1101   0.00
  1102 C1       92 POPC  C2B     1102   0.00
  1103 C1       92 POPC  C3B     1103   0.00
  1104 C1       92 POPC  C4B     1104   0.00
  1105 Q1       93 POPC  NC3     1105   1.00
  1106 Q5       93 POPC  PO4     1106  -1.00
  1107 SN4a     93 POPC  GL1     1107   0.00
  1108 N4a      93 POPC  GL2     1108   0.00
  1109 C1       93 POPC  C1A     1109   0.00
  1110 C4h      93 POPC  D2A     1110   0.00
  1111 C1       93 POPC  C3A     1111   0.00
  1112 C1       93 POPC  C4A     1112   0.00
  1113 C1       93 POPC  C1B     1113   0.00
  1114 C1       93 POPC  C2B     1114   0.00
  1115 C1       93 POPC  C3B     1115   0.00
  1116 C1       93 POPC  C4B     1116   0.00
  1117 Q1       94 POPC  NC3     1117   1.00
  1118 Q5       94 POPC  PO4     1118  -1.00
  1119 SN4a     94 POPC  GL1     1119   0.00
  1120 N4a      94 POPC  GL2     1120   0.00
  1121 C1       94 POPC  C1A     1121   0.00
  1122 C4h      94 POPC  D2A     1122   0.00
  1123 C1       94 POPC  C3A     1123   0.00
  1124 C1       94 POPC  C4A     1124   0.00
  1125 C1       94 POPC  C1B     1125   0.00
  1126 C1       94 POPC  C2B     1126   0.00
  1127 C1       94 POPC  C3B     1127   0.00
  1128 C1       94 POPC  C4B     1128   0.00
  1129 Q1       95 POPC  NC3     1129   1.00
  1130 Q5       95 POPC  PO4     1130  -1.00
  1131 SN4a     95 POPC  GL1     1131   0.00
  1132 N4a      95 POPC  GL2     1132   0.00
  1133 C1       95 POPC  C1A     1133   0.00
  1134 C4h      95 POPC  D2A     1134   0.00
  1135 C1       95 POPC  C3A     1135   0.00
  1136 C1       95 POPC  C4A     1136   0.00
  1137 C1       95 POPC  C1B     1137   0.00
  1138 C1       95 POPC  C2B     1138   0.00
  1139 C1       95 POPC  C3B     1139   0.00
  1140 C1       95 POPC  C4B     1140   0.00
  1141 Q1       96 POPC  NC3     1141   1.00
  1142 Q5       96 POPC  PO4     1142  -1.00
  1143 SN4a     96 POPC  GL1     1143   0.00
  1144 N4a      96 POPC  GL2     1144   0.00
  1145 C1       96 POPC  C1A     1145   0.00
  1146 C4h      96 POPC  D2A     1146   0.00
  1147 C1       96 POPC  C3A     1147   0.00
  1148 C1       96 POPC  C4A     1148   0.00
  1149 C1       96 POPC  C1B     1149   0.00
  1150 C1       96 POPC  C2B     1150   0.00
  1151 C1       96 POPC  C3B     1151   0.00
  1152 C1       96 POPC  C4B     1152   0.00
  1153 Q1       97 POPC  NC3     1153   1.00
  1154 Q5       97 POPC  PO4     1154  -1.00
  1155 SN4a     97 POPC  GL1     1155   0.00
  1156 N4a      97 POPC  GL2     1156   0.00
  1157 C1       97 POPC  C1A     1157   0.00
  1158 C4h      97 POPC  D2A     1158   0.00
  1159 C1       97 POPC  C3A     1159   0.00
  1160 C1       97 POPC  C4A     1160   0.00
  1161 C1       97 POPC  C1B     1161   0.00
  1162 C1       97 POPC  C2B     1162   0.00
  1163 C1       97 POPC  C3B     1163   0.00
  1164 C1       97 POPC  C4B     1164   0.00
  1165 Q1       98 POPC  NC3     1165   1.00
  1166 Q5       98 POPC  PO4     1166  -1.00
  1167 SN4a     98 POPC  GL1     1167   0.00
  1168 N4a      98 POPC  GL2     1168   0.00
  1169 C1       98 POPC  C1A     1169   0.00
  1170 C4h      98 POPC  D2A     1170   0.00
  1171 C1       98 POPC  C3A     1171   0.00
  1172 C1       98 POPC  C4A     1172   0.00
  1173 C1       98 POPC  C1B     1173   0.00
  1174 C1       98 POPC  C2B     1174   0.00
  1175 C1       98 POPC  C3B     1175   0.00
  1176 C1       98 POPC  C4B     1176   0.00
  1177 Q1       99 POPC  NC3     1177   1.00
  1178 Q5       99 POPC  PO4     1178  -1.00
  1179 SN4a     99 POPC  GL1     1179   0.00
  1180 N4a      99 POPC  GL2     1180   0.00
  1181 C1       99 POPC  C1A     1181   0.00
  1182 C4h      99 POPC  D2A     1182   0.00
  1183 C1       99 POPC  C3A     1183   0.00
  1184 C1       99 POPC  C4A     1184   0.00
  1185 C1       99 POPC  C1B     1185   0.00
  1186 C1       99 POPC  C2B     1186   0.00
  1187 C1       99 POPC  C3B     1187   0.00
  1188 C1       99 POPC  C4B     1188   0.00
  1189 Q1      100 POPC  NC3     1189   1.00
  1190 Q5      100 POPC  PO4     1190  -1.00
  1191 SN4a    100 POPC  GL1     1191   0.00
  1192 N4a     100 POPC  GL2     1192   0.00
  1193 C1      100 POPC  C1A     1193   0.00
  1194 C4h     100 POPC  D2A     1194   0.00
  1195 C1      100 POPC  C3A     1195   0.00
  1196 C1      100 POPC  C4A     1196   0.00
  1197 C1      100 POPC  C1B     1197   0.00
  1198 C1      100 POPC  C2B     1198   0.00
  1199 C1      100 POPC  C3B     1199   0.00
  1200 C1      100 POPC  C4B     1200   0.00
  1201 Q1      101 POPC  NC3     1201   1.00
  1202 Q5      101 POPC  PO4     1202  -1.00
  1203 SN4a    101 POPC  GL1     1203   0.00
  1204 N4a     101 POPC  GL2     1204   0.00
  1205 C1      101 POPC  C1A     1205   0.00
  1206 C4h     101 POPC  D2A     1206   0.00
  1207 C1      101 POPC  C3A     1207   0.00
  1208 C1      101 POPC  C4A     1208   0.00
  1209 C1      101 POPC  C1B     1209   0.00
  1210 C1      101 POPC  C2B     1210   0.00
  1211 C1      101 POPC  C3B     1211   0.00
  1212 C1      101 POPC  C4B     1212   0.00
  1213 Q1      102 POPC  NC3     1213   1.00
  1214 Q5      102 POPC  PO4     1214  -1.00
  1215 SN4a    102 POPC  GL1     1215   0.00
  1216 N4a     102 POPC  GL2     1216   0.00
  1217 C1      102 POPC  C1A     1217   0.00
  1218 C4h     102 POPC  D2A     1218   0.00
  1219 C1      102 POPC  C3A     1219   0.00
  1220 C1      102 POPC  C4A     1220   0.00
  1221 C1      102 POPC  C1B     1221   0.00
  1222 C1      102 POPC  C2B     1222   0.00
  1223 C1      102 POPC  C3B     1223   0.00
  1224 C1      102 POPC  C4B     1224   0.00
  1225 Q1      103 POPC  NC3     1225   1.00
  1226 Q5      103 POPC  PO4     1226  -1.00
  1227 SN4a    103 POPC  GL1     1227   0.00
  1228 N4a     103 POPC  GL2     1228   0.00
  1229 C1      103 POPC  C1A     1229   0.00
  1230 C4h     103 POPC  D2A     1230   0.00
  1231 C1      103 POPC  C3A     1231   0.00
  1232 C1      103 POPC  C4A     1232   0.00
  1233 C1      103 POPC  C1B     1233   0.00
  1234 C1      103 POPC  C2B     1234   0.00
  1235 C1      103 POPC  C3B     1235   0.00
  1236 C1      103 POPC  C4B     1236   0.00
  1237 Q1      104 POPC  NC3     1237   1.00
  1238 Q5      104 POPC  PO4     1238  -1.00
  1239 SN4a    104 POPC  GL1     1239   0.00
  1240 N4a     104 POPC  GL2     1240   0.00
  1241 C1      104 POPC  C1A     1241   0.00
  1242 C4h     104 POPC  D2A     1242   0.00
  1243 C1      104 POPC  C3A     1243   0.00
  1244 C1      104 POPC  C4A     1244   0.00
  1245 C1      104 POPC  C1B     1245   0.00
  1246 C1      104 POPC  C2B     1246   0.00
  1247 C1      104 POPC  C3B     1247   0.00
  1248 C1      104 POPC  C4B     1248   0.00
  1249 Q1      105 POPC  NC3     1249   1.00
  1250 Q5      105 POPC  PO4     1250  -1.00
  1251 SN4a    105 POPC  GL1     1251   0.00
  1252 N4a     105 POPC  GL2     1252   0.00
  1253 C1      105 POPC  C1A     1253   0.00
  1254 C4h     105 POPC  D2A     1254   0.00
  1255 C1      105 POPC  C3A     1255   0.00
  1256 C1      105 POPC  C4A     1256   0.00
  1257 C1      105 POPC  C1B     1257   0.00
  1258 C1      105 POPC  C2B     1258   0.00
  1259 C1      105 POPC  C3B     1259   0.00
  1260 C1      105 POPC  C4B     1260   0.00
  1261 Q1      106 POPC  NC3     1261   1.00
  1262 Q5      106 POPC  PO4     1262  -1.00
  1263 SN4a    106 POPC  GL1     1263   0.00
  1264 N4a     106 POPC  GL2     1264   0.00
  1265 C1      106 POPC  C1A     1265   0.00
  1266 C4h     106 POPC  D2A     1266   0.00
  1267 C1      106 POPC  C3A     1267   0.00
  1268 C1      106 POPC  C4A     1268   0.00
  1269 C1      106 POPC  C1B     1269   0.00
  1270 C1      106 POPC  C2B     1270   0.00
  1271 C1      106 POPC  C3B     1271   0.00
  1272 C1      106 POPC  C4B     1272   0.00
  1273 Q1      107 POPC  NC3     1273   1.00
  1274 Q5      107 POPC  PO4     1274  -1.00
  1275 SN4a    107 POPC  GL1     1275   0.00
  1276 N4a     107 POPC  GL2     1276   0.00
  1277 C1      107 POPC  C1A     1277   0.00
  1278 C4h     107 POPC  D2A     1278   0.00
  1279 C1      107 POPC  C3A     1279   0.00
  1280 C1      107 POPC  C4A     1280   0.00
  1281 C1      107 POPC  C1B     1281   0.00
  1282 C1      107 POPC  C2B     1282   0.00
  1283 C1      107 POPC  C3B     1283   0.00
  1284 C1      107 POPC  C4B     1284   0.00
  1285 Q1      108 POPC  NC3     1285   1.00
  1286 Q5      108 POPC  PO4     1286  -1.00
  1287 SN4a    108 POPC  GL1     1287   0.00
  1288 N4a     108 POPC  GL2     1288   0.00
  1289 C1      108 POPC  C1A     1289   0.00
  1290 C4h     108 POPC  D2A     1290   0.00
  1291 C1      108 POPC  C3A     1291   0.00
  1292 C1      108 POPC  C4A     1292   0.00
  1293 C1      108 POPC  C1B     1293   0.00
  1294 C1      108 POPC  C2B     1294   0.00
  1295 C1      108 POPC  C3B     1295   0.00
  1296 C1      108 POPC  C4B     1296   0.00
  1297 Q1      109 POPC  NC3     1297   1.00
  1298 Q5      109 POPC  PO4     1298  -1.00
  1299 SN4a    109 POPC  GL1     1299   0.00
  1300 N4a     109 POPC  GL2     1300   0.00
  1301 C1      109 POPC  C1A     1301   0.00
  1302 C4h     109 POPC  D2A     1302   0.00
  1303 C1      109 POPC  C3A     1303   0.00
  1304 C1      109 POPC  C4A     1304   0.00
  1305 C1      109 POPC  C1B     1305   0.00
  1306 C1      109 POPC  C2B     1306   0.00
  1307 C1      109 POPC  C3B     1307   0.00
  1308 C1      109 POPC  C4B     1308   0.00
  1309 Q1      110 POPC  NC3     1309   1.00
  1310 Q5      110 POPC  PO4     1310  -1.00
  1311 SN4a    110 POPC  GL1     1311   0.00
  1312 N4a     110 POPC  GL2     1312   0.00
  1313 C1      110 POPC  C1A     1313   0.00
  1314 C4h     110 POPC  D2A     1314   0.00
  1315 C1      110 POPC  C3A     1315   0.00
  1316 C1      110 POPC  C4A     1316   0.00
  1317 C1      110 POPC  C1B     1317   0.00
  1318 C1      110 POPC  C2B     1318   0.00
  1319 C1      110 POPC  C3B     1319   0.00
  1320 C1      110 POPC  C4B     1320   0.00
  1321 Q1      111 POPC  NC3     1321   1.00
  1322 Q5      111 POPC  PO4     1322  -1.00
  1323 SN4a    111 POPC  GL1     1323   0.00
  1324 N4a     111 POPC  GL2     1324   0.00
  1325 C1      111 POPC  C1A     1325   0.00
  1326 C4h     111 POPC  D2A     1326   0.00
  1327 C1      111 POPC  C3A     1327   0.00
  1328 C1      111 POPC  C4A     1328   0.00
  1329 C1      111 POPC  C1B     1329   0.00
  1330 C1      111 POPC  C2B     1330   0.00
  1331 C1      111 POPC  C3B     1331   0.00
  1332 C1      111 POPC  C4B     1332   0.00
  1333 Q1      112 POPC  NC3     1333   1.00
  1334 Q5      112 POPC  PO4     1334  -1.00
  1335 SN4a    112 POPC  GL1     1335   0.00
  1336 N4a     112 POPC  GL2     1336   0.00
  1337 C1      112 POPC  C1A     1337   0.00
  1338 C4h     112 POPC  D2A     1338   0.00
  1339 C1      112 POPC  C3A     1339   0.00
  1340 C1      112 POPC  C4A     1340   0.00
  1341 C1      112 POPC  C1B     1341   0.00
  1342 C1      112 POPC  C2B     1342   0.00
  1343 C1      112 POPC  C3B     1343   0.00
  1344 C1      112 POPC  C4B     1344   0.00
  1345 Q1      113 POPC  NC3     1345   1.00
  1346 Q5      113 POPC  PO4     1346  -1.00
  1347 SN4a    113 POPC  GL1     1347   0.00
  1348 N4a     113 POPC  GL2     1348   0.00
  1349 C1      113 POPC  C1A     1349   0.00
  1350 C4h     113 POPC  D2A     1350   0.00
  1351 C1      113 POPC  C3A     1351   0.00
  1352 C1      113 POPC  C4A     1352   0.00
  1353 C1      113 POPC  C1B     1353   0.00
  1354 C1      113 POPC  C2B     1354   0.00
  1355 C1      113 POPC  C3B     1355   0.00
  1356 C1      113 POPC  C4B     1356   0.00
  1357 Q1      114 POPC  NC3     1357   1.00
  1358 Q5      114 POPC  PO4     1358  -1.00
  1359 SN4a    114 POPC  GL1     1359   0.00
  1360 N4a     114 POPC  GL2     1360   0.00
  1361 C1      114 POPC  C1A     1361   0.00
  1362 C4h     114 POPC  D2A     1362   0.00
  1363 C1      114 POPC  C3A     1363   0.00
  1364 C1      114 POPC  C4A     1364   0.00
  1365 C1      114 POPC  C1B     1365   0.00
  1366 C1      114 POPC  C2B     1366   0.00
  1367 C1      114 POPC  C3B     1367   0.00
  1368 C1      114 POPC  C4B     1368   0.00
  1369 Q1      115 POPC  NC3     1369   1.00
  1370 Q5      115 POPC  PO4     1370  -1.00
  1371 SN4a    115 POPC  GL1     1371   0.00
  1372 N4a     115 POPC  GL2     1372   0.00
  1373 C1      115 POPC  C1A     1373   0.00
  1374 C4h     115 POPC  D2A     1374   0.00
  1375 C1      115 POPC  C3A     1375   0.00
  1376 C1      115 POPC  C4A     1376   0.00
  1377 C1      115 POPC  C1B     1377   0.00
  1378 C1      115 POPC  C2B     1378   0.00
  1379 C1      115 POPC  C3B     1379   0.00
  1380 C1      115 POPC  C4B     1380   0.00
  1381 Q1      116 POPC  NC3     1381   1.00
  1382 Q5      116 POPC  PO4     1382  -1.00
  1383 SN4a    116 POPC  GL1     1383   0.00
  1384 N4a     116 POPC  GL2     1384   0.00
  1385 C1      116 POPC  C1A     1385   0.00
  1386 C4h     116 POPC  D2A     1386   0.00
  1387 C1      116 POPC  C3A     1387   0.00
  1388 C1      116 POPC  C4A     1388   0.00
  1389 C1      116 POPC  C1B     1389   0.00
  1390 C1      116 POPC  C2B     1390   0.00
  1391 C1      116 POPC  C3B     1391   0.00
  1392 C1      116 POPC  C4B     1392   0.00
  1393 Q1      117 POPC  NC3     1393   1.00
  1394 Q5      117 POPC  PO4     1394  -1.00
  1395 SN4a    117 POPC  GL1     1395   0.00
  1396 N4a     117 POPC  GL2     1396   0.00
  1397 C1      117 POPC  C1A     1397   0.00
  1398 C4h     117 POPC  D2A     1398   0.00
  1399 C1      117 POPC  C3A     1399   0.00
  1400 C1      117 POPC  C4A     1400   0.00
  1401 C1      117 POPC  C1B     1401   0.00
  1402 C1      117 POPC  C2B     1402   0.00
  1403 C1      117 POPC  C3B     1403   0.00
  1404 C1      117 POPC  C4B     1404   0.00
  1405 Q1      118 POPC  NC3     1405   1.00
  1406 Q5      118 POPC  PO4     1406  -1.00
  1407 SN4a    118 POPC  GL1     1407   0.00
  1408 N4a     118 POPC  GL2     1408   0.00
  1409 C1      118 POPC  C1A     1409   0.00
  1410 C4h     118 POPC  D2A     1410   0.00
  1411 C1      118 POPC  C3A     1411   0.00
  1412 C1      118 POPC  C4A     1412   0.00
  1413 C1      118 POPC  C1B     1413   0.00
  1414 C1      118 POPC  C2B     1414   0.00
  1415 C1      118 POPC  C3B     1415   0.00
  1416 C1      118 POPC  C4B     1416   0.00
  1417 Q1      119 POPC  NC3     1417   1.00
  1418 Q5      119 POPC  PO4     1418  -1.00
  1419 SN4a    119 POPC  GL1     1419   0.00
  1420 N4a     119 POPC  GL2     1420   0.00
  1421 C1      119 POPC  C1A     1421   0.00
  1422 C4h     119 POPC  D2A     1422   0.00
  1423 C1      119 POPC  C3A     1423   0.00
  1424 C1      119 POPC  C4A     1424   0.00
  1425 C1      119 POPC  C1B     1425   0.00
  1426 C1      119 POPC  C2B     1426   0.00
  1427 C1      119 POPC  C3B     1427   0.00
  1428 C1      119 POPC  C4B     1428   0.00
  1429 Q1      120 POPC  NC3     1429   1.00
  1430 Q5      120 POPC  PO4     1430  -1.00
  1431 SN4a    120 POPC  GL1     1431   0.00
  1432 N4a     120 POPC  GL2     1432   0.00
  1433 C1      120 POPC  C1A     1433   0.00
  1434 C4h     120 POPC  D2A     1434   0.00
  1435 C1      120 POPC  C3A     1435   0.00
  1436 C1      120 POPC  C4A     1436   0.00
  1437 C1      120 POPC  C1B     1437   0.00
  1438 C1      120 POPC  C2B     1438   0.00
  1439 C1      120 POPC  C3B     1439   0.00
  1440 C1      120 POPC  C4B     1440   0.00
  1441 Q1      121 POPC  NC3     1441   1.00
  1442 Q5      121 POPC  PO4     1442  -1.00
  1443 SN4a    121 POPC  GL1     1443   0.00
  1444 N4a     121 POPC  GL2     1444   0.00
  1445 C1      121 POPC  C1A     1445   0.00
  1446 C4h     121 POPC  D2A     1446   0.00
  1447 C1      121 POPC  C3A     1447   0.00
  1448 C1      121 POPC  C4A     1448   0.00
  1449 C1      121 POPC  C1B     1449   0.00
  1450 C1      121 POPC  C2B     1450   0.00
  1451 C1      121 POPC  C3B     1451   0.00
  1452 C1      121 POPC  C4B     1452   0.00
  1453 Q1      122 POPC  NC3     1453   1.00
  1454 Q5      122 POPC  PO4     1454  -1.00
  1455 SN4a    122 POPC  GL1     1455   0.00
  1456 N4a     122 POPC  GL2     1456   0.00
  1457 C1      122 POPC  C1A     1457   0.00
  1458 C4h     122 POPC  D2A     1458   0.00
  1459 C1      122 POPC  C3A     1459   0.00
  1460 C1      122 POPC  C4A     1460   0.00
  1461 C1      122 POPC  C1B     1461   0.00
  1462 C1      122 POPC  C2B     1462   0.00
  1463 C1      122 POPC  C3B     1463   0.00
  1464 C1      122 POPC  C4B     1464   0.00
  1465 Q1      123 POPC  NC3     1465   1.00
  1466 Q5      123 POPC  PO4     1466  -1.00
  1467 SN4a    123 POPC  GL1     1467   0.00
  1468 N4a     123 POPC  GL2     1468   0.00
  1469 C1      123 POPC  C1A     1469   0.00
  1470 C4h     123 POPC  D2A     1470   0.00
  1471 C1      123 POPC  C3A     1471   0.00
  1472 C1      123 POPC  C4A     1472   0.00
  1473 C1      123 POPC  C1B     1473   0.00
  1474 C1      123 POPC  C2B     1474   0.00
  1475 C1      123 POPC  C3B     1475   0.00
  1476 C1      123 POPC  C4B     1476   0.00
  1477 Q1      124 POPC  NC3     1477   1.00
  1478 Q5      124 POPC  PO4     1478  -1.00
  1479 SN4a    124 POPC  GL1     1479   0.00
  1480 N4a     124 POPC  GL2     1480   0.00
  1481 C1      124 POPC  C1A     1481   0.00
  1482 C4h     124 POPC  D2A     1482   0.00
  1483 C1      124 POPC  C3A     1483   0.00
  1484 C1      124 POPC  C4A     1484   0.00
  1485 C1      124 POPC  C1B     1485   0.00
  1486 C1      124 POPC  C2B     1486   0.00
  1487 C1      124 POPC  C3B     1487   0.00
  1488 C1      124 POPC  C4B     1488   0.00
  1489 Q1      125 POPC  NC3     1489   1.00
  1490 Q5      125 POPC  PO4     1490  -1.00
  1491 SN4a    125 POPC  GL1     1491   0.00
  1492 N4a     125 POPC  GL2     1492   0.00
  1493 C1      125 POPC  C1A     1493   0.00
  1494 C4h     125 POPC  D2A     1494   0.00
  1495 C1      125 POPC  C3A     1495   0.00
  1496 C1      125 POPC  C4A     1496   0.00
  1497 C1      125 POPC  C1B     1497   0.00
  1498 C1      125 POPC  C2B     1498   0.00
  1499 C1      125 POPC  C3B     1499   0.00
  1500 C1      125 POPC  C4B     1500   0.00
  1501 Q1      126 POPC  NC3     1501   1.00
  1502 Q5      126 POPC  PO4     1502  -1.00
  1503 SN4a    126 POPC  GL1     1503   0.00
  1504 N4a     126 POPC  GL2     1504   0.00
  1505 C1      126 POPC  C1A     1505   0.00
  1506 C4h     126 POPC  D2A     1506   0.00
  1507 C1      126 POPC  C3A     1507   0.00
  1508 C1      126 POPC  C4A     1508   0.00
  1509 C1      126 POPC  C1B     1509   0.00
  1510 C1      126 POPC  C2B     1510   0.00
  1511 C1      126 POPC  C3B     1511   0.00
  1512 C1      126 POPC  C4B     1512   0.00
  1513 Q1      127 POPC  NC3     1513   1.00
  1514 Q5      127 POPC  PO4     1514  -1.00
  1515 SN4a    127 POPC  GL1     1515   0.00
  1516 N4a     127 POPC  GL2     1516   0.00
  1517 C1      127 POPC  C1A     1517   0.00
  1518 C4h     127 POPC  D2A     1518   0.00
  1519 C1      127 POPC  C3A     1519   0.00
  1520 C1      127 POPC  C4A     1520   0.00
  1521 C1      127 POPC  C1B     1521   0.00
  1522 C1      127 POPC  C2B     1522   0.00
  1523 C1      127 POPC  C3B     1523   0.00
  1524 C1      127 POPC  C4B     1524   0.00
  1525 Q1      128 POPC  NC3     1525   1.00
  1526 Q5      128 POPC  PO4     1526  -1.00
  1527 SN4a    128 POPC  GL1     1527   0.00
  1528 N4a     128 POPC  GL2     1528   0.00
  1529 C1      128 POPC  C1A     1529   0.00
  1530 C4h     128 POPC  D2A     1530   0.00
  1531 C1      128 POPC  C3A     1531   0.00
  1532 C1      128 POPC  C4A     1532   0.00
  1533 C1      128 POPC  C1B     1533   0.00
  1534 C1      128 POPC  C2B     1534   0.00
  1535 C1      128 POPC  C3B     1535   0.00
  1536 C1      128 POPC  C4B     1536   0.00
  1537 W       129 W     W       1537   0.00
  1538 W       130 W     W       1538   0.00
  1539 W       131 W     W       1539   0.00
  1540 W       132 W     W       1540   0.00
  1541 W       133 W     W       1541   0.00
  1542 W       134 W     W       1542   0.00
  1543 W       135 W     W       1543   0.00
  1544 W       136 W     W       1544   0.00
  1545 W       137 W     W       1545   0.00
  1546 W       138 W     W       1546   0.00
  1547 W       139 W     W       1547   0.00
  1548 W       140 W     W       1548   0.00
  1549 W       141 W     W       1549   0.00
  1550 W       142 W     W       1550   0.00
  1551 W       143 W     W       1551   0.00
  1552 W       144 W     W       1552   0.00
  1553 W       145 W     W       1553   0.00
  1554 W       146 W     W       1554   0.00
  1555 W       147 W     W       1555   0.00
  1556 W       148 W     W       1556   0.00
  1557 W       149 W     W       1557   0.00
  1558 W       150 W     W       1558   0.00
  1559 W       151 W     W       1559   0.00
  1560 W       152 W     W       1560   0.00
  1561 W       153 W     W       1561   0.00
  1562 W       154 W     W       1562   0.00
  1563 W       155 W     W       1563   0.00
  1564 W       156 W     W       1564   0.00
  1565 W       157 W     W       1565   0.00
  1566 W       158 W     W       1566   0.00
  1567 W       159 W     W       1567   0.00
  1568 W       160 W     W       1568   0.00
  1569 W       161 W     W       1569   0.00
  1570 W       162 W     W       1570   0.00
  1571 W       163 W     W       1571   0.00
  1572 W       164 W     W       1572   0.00
  1573 W       165 W     W       1573   0.00
  1574 W       166 W     W       1574   0.00
  1575 W       167 W     W       1575   0.00
  1576 W       168 W     W       1576   0.00
  1577 W       169 W     W       1577   0.00
  1578 W       170 W     W       1578   0.00
  1579 W       171 W     W       1579   0.00
  1580 W       172 W     W       1580   0.00
  1581 W       173 W     W       1581   0.00
  1582 W       174 W     W       1582   0.00
  1583 W       175 W     W       1583   0.00
  1584 W       176 W     W       1584   0.00
  1585 W       177 W     W       1585   0.00
  1586 W       178 W     W       1586   0.00
  1587 W       179 W     W       1587   0.00
  1588 W       180 W     W       1588   0.00
  1589 W       181 W     W       1589   0.00
  1590 W       182 W     W       1590   0.00
  1591 W       183 W     W       1591   0.00
  1592 W       184 W     W       1592   0.00
  1593 W       185 W     W       1593   0.00
  1594 W       186 W     W       1594   0.00
  1595 W       187 W     W       1595   0.00
  1596 W       188 W     W       1596   0.00
  1597 W       189 W     W       1597   0.00
  1598 W       190 W     W       1598   0.00
  1599 W       191 W     W       1599   0.00
  1600 W       192 W     W       1600   0.00
  1601 W       193 W     W       1601   0.00
  1602 W       194 W     W       1602   0.00
  1603 W       195 W     W       1603   0.00
  1604 W       196 W     W       1604   0.00
  1605 W       197 W     W       1605   0.00
  1606 W       198 W     W       1606   0.00
  1607 W       199 W     W       1607   0.00
  1608 W       200 W     W       1608   0.00
  1609 W       201 W     W       1609   0.00
  1610 W       202 W     W       1610   0.00
  1611 W       203 W     W       1611   0.00
  1612 W       204 W     W       1612   0.00
  1613 W       205 W     W       1613   0.00
  1614 W       206 W     W       1614   0.00
  1615 W       207 W     W       1615   0.00
  1616 W       208 W     W       1616   0.00
  1617 W       209 W     W       1617   0.00
  1618 W       210 W     W       1618   0.00
  1619 W       211 W     W       1619   0.00
  1620 W       212 W     W       1620   0.00
  1621 W       213 W     W       1621   0.00
  1622 W       214 W     W       1622   0.00
  1623 W       215 W     W       1623   0.00
  1624 W       216 W     W       1624   0.00
  1625 W       217 W     W       1625   0.00
  1626 W       218 W     W       1626   0.00
  1627 W       219 W     W       1627   0.00
  1628 W       220 W     W       1628   0.00
  1629 W       221 W     W       1629   0.00
  1630 W       222 W     W       1630   0.00
  1631 W       223 W     W       1631   0.00
  1632 W       224 W     W       1632   0.00
  1633 W       225 W     W       1633   0.00
  1634 W       226 W     W       1634   0.00
  1635 W       227 W     W       1635   0.00
  1636 W       228 W     W       1636   0.00
  1637 W       229 W     W       1637   0.00
  1638 W       230 W     W       1638   0.00
  1639 W       231 W     W       1639   0.00
  1640 W       232 W     W       1640   0.00
  1641 W       233 W     W       1641   0.00
  1642 W       234 W     W       1642   0.00
  1643 W       235 W     W       1643   0.00
  1644 W       236 W     W       1644   0.00
  1645 W       237 W     W       1645   0.00
  1646 W       238 W     W       1646   0.00
  1647 W       239 W     W       1647   0.00
  1648 W       240 W     W       1648   0.00
  1649 W       241 W     W       1649   0.00
  1650 W       242 W     W       1650   0.00
  1651 W       243 W     W       1651   0.00
  1652 W       244 W     W       1652   0.00
  1653 W       245 W     W       1653   0.00
  1654 W       246 W     W       1654   0.00
  1655 W       247 W     W       1655   0.00
  1656 W       248 W     W       1656   0.00
  1657 W       249 W     W       1657   0.00
  1658 W       250 W     W       1658   0.00
  1659 W       251 W     W       1659   0.00
  1660 W       252 W     W       1660   0.00
  1661 W       253 W     W       1661   0.00
  1662 W       254 W     W       1662   0.00
  1663 W       255 W     W       1663   0.00
  1664 W       256 W     W       1664   0.00
  1665 W       257 W     W       1665   0.00
  1666 W       258 W     W       1666   0.00
  1667 W       259 W     W       1667   0.00
  1668 W       260 W     W       1668   0.00
  1669 W       261 W     W       1669   0.00
  1670 W       262 W     W       1670   0.00
  1671 W       263 W     W       1671   0.00
  1672 W       264 W     W       1672   0.00
  1673 W       265 W     W       1673   0.00
  1674 W       266 W     W       1674   0.00
  1675 W       267 W     W       1675   0.00
  1676 W       268 W     W       1676   0.00
  1677 W       269 W     W       1677   0.00
  1678 W       270 W     W       1678   0.00
  1679 W       271 W     W       1679   0.00
  1680 W       272 W     W       1680   0.00
  1681 W       273 W     W       1681   0.00
  1682 W       274 W     W       1682   0.00
  1683 W       275 W     W       1683   0.00
  1684 W       276 W     W       1684   0.00
  1685 W       277 W     W       1685   0.00
  1686 W       278 W     W       1686   0.00
  1687 W       279 W     W       1687   0.00
  1688 W       280 W     W       1688   0.00
  1689 W       281 W     W       1689   0.00
  1690 W       282 W     W       1690   0.00
  1691 W       283 W     W       1691   0.00
  1692 W       284 W     W       1692   0.00
  1693 W       285 W     W       1693   0.00
  1694 W       286 W     W       1694   0.00
  1695 W       287 W     W       1695   0.00
  1696 W       288 W     W       1696   0.00
  1697 W       289 W     W       1697   0.00
  1698 W       290 W     W       1698   0.00
  1699 W       291 W     W       1699   0.00
  1700 W       292 W     W       1700   0.00
  1701 W       293 W     W       1701   0.00
  1702 W       294 W     W       1702   0.00
  1703 W       295 W     W       1703   0.00
  1704 W       296 W     W       1704   0.00
  1705 W       297 W     W       1705   0.00
  1706 W       298 W     W       1706   0.00
  1707 W       299 W     W       1707   0.00
  1708 W       300 W     W       1708   0.00
  1709 W       301 W     W       1709   0.00
  1710 W       302 W     W       1710   0.00
  1711 W       303 W     W       1711   0.00
  1712 W       304 W     W       1712   0.00
  1713 W       305 W     W       1713   0.00
  1714 W       306 W     W       1714   0.00
  1715 W       307 W     W       1715   0.00
  1716 W       308 W     W       1716   0.00
  1717 W       309 W     W       1717   0.00
  1718 W       310 W     W       1718   0.00
  1719 W       311 W     W       1719   0.00
  1720 W       312 W     W       1720   0.00
  1721 W       313 W     W       1721   0.00
  1722 W       314 W     W       1722   0.00
  1723 W       315 W     W       1723   0.00
  1724 W       316 W     W       1724   0.00
  1725 W       317 W     W       1725   0.00
  1726 W       318 W     W       1726   0.00
  1727 W       319 W     W       1727   0.00
  1728 W       320 W     W       1728   0.00
  1729 W       321 W     W       1729   0.00
  1730 W       322 W     W       1730   0.00
  1731 W       323 W     W       1731   0.00
  1732 W       324 W     W       1732   0.00
  1733 W       325 W     W       1733   0.00
  1734 W       326 W     W       1734   0.00
  1735 W       327 W     W       1735   0.00
  1736 W       328 W     W       1736   0.00
  1737 W       329 W     W       1737   0.00
  1738 W       330 W     W       1738   0.00
  1739 W       331 W     W       1739   0.00
  1740 W       332 W     W       1740   0.00
  1741 W       333 W     W       1741   0.00
  1742 W       334 W     W       1742   0.00
  1743 W       335 W     W       1743   0.00
  1744 W       336 W     W       1744   0.00
  1745 W       337 W     W       1745   0.00
  1746 W       338 W     W       1746   0.00
  1747 W       339 W     W       1747   0.00
  1748 W       340 W     W       1748   0.00
  1749 W       341 W     W       1749   0.00
  1750 W       342 W     W       1750   0.00
  1751 W       343 W     W       1751   0.00
  1752 W       344 W     W       1752   0.00
  1753 W       345 W     W       1753   0.00
  1754 W       346 W     W       1754   0.00
  1755 W       347 W     W       1755   0.00
  1756 W       348 W     W       1756   0.00
  1757 W       349 W     W       1757   0.00
  1758 W       350 W     W       1758   0.00
  1759 W       351 W     W       1759   0.00
  1760 W       352 W     W       1760   0.00
  1761 W       353 W     W       1761   0.00
  1762 W       354 W     W       1762   0.00
  1763 W       355 W     W       1763   0.00
  1764 W       356 W     W       1764   0.00
  1765 W       357 W     W       1765   0.00
  1766 W       358 W     W       1766   0.00
  1767 W       359 W     W       1767   0.00
  1768 W       360 W     W       1768   0.00
  1769 W       361 W     W       1769   0.00
  1770 W       362 W     W       1770   0.00
  1771 W       363 W     W       1771   0.00
  1772 W       364 W     W       1772   0.00
  1773 W       365 W     W       1773   0.00
  1774 W       366 W     W       1774   0.00
  1775 W       367 W     W       1775   0.00
  1776 W       368 W     W       1776   0.00
  1777 W       369 W     W       1777   0.00
  1778 W       370 W     W       1778   0.00
  1779 W       371 W     W       1779   0.00
  1780 W       372 W     W       1780   0.00
  1781 W       373 W     W       1781   0.00
  1782 W       374 W     W       1782   0.00
  1783 W       375 W     W       1783   0.00
  1784 W       376 W     W       1784   0.00
  1785 W       377 W     W       1785   0.00
  1786 W       378 W     W       1786   0.00
  1787 W       379 W     W       1787   0.00
  1788 W       380 W     W       1788   0.00
  1789 W       381 W     W       1789   0.00
  1790 W       382 W     W       1790   0.00
  1791 W       383 W     W       1791   0.00
  1792 W       384 W     W       1792   0.00
  1793 W       385 W     W       1793   0.00
  1794 W       386 W     W       1794   0.00
  1795 W       387 W     W       1795   0.00
  1796 W       388 W     W       1796   0.00
  1797 W       389 W     W       1797   0.00
  1798 W       390 W     W       1798   0.00
  1799 W       391 W     W       1799   0.00
  1800 W       392 W     W       1800   0.00
  1801 W       393 W     W       1801   0.00
  1802 W       394 W     W       1802   0.00
  1803 W       395 W     W       1803   0.00
  1804 W       396 W     W       1804   0.00
  1805 W       397 W     W       1805   0.00
  1806 W       398 W     W       1806   0.00
  1807 W       399 W     W       1807   0.00
  1808 W       400 W     W       1808   0.00
  1809 W       401 W     W       1809   0.00
  1810 W       402 W     W       1810   0.00
  1811 W       403 W     W       1811   0.00
  1812 W       404 W     W       1812   0.00
  1813 W       405 W     W       1813   0.00
  1814 W       406 W     W       1814   0.00
  1815 W       407 W     W       1815   0.00
  1816 W       408 W     W       1816   0.00
  1817 W       409 W     W       1817   0.00
  1818 W       410 W     W       1818   0.00
  1819 W       411 W     W       1819   0.00
  1820 W       412 W     W       1820   0.00
  1821 W       413 W     W       1821   0.00
  1822 W       414 W     W       1822   0.00
  1823 W       415 W     W       1823   0.00
  1824 W       416 W     W       1824   0.00
  1825 W       417 W     W       1825   0.00
  1826 W       418 W     W       1826   0.00
  1827 W       419 W     W       1827   0.00
  1828 W       420 W     W       1828   0.00
  1829 W       421 W     W       1829   0.00
  1830 W       422 W     W       1830   0.00
  1831 W       423 W     W       1831   0.00
  1832 W       424 W     W       1832   0.00
  1833 W       425 W     W       1833   0.00
  1834 W       426 W     W       1834   0.00
  1835 W       427 W     W       1835   0.00
  1836 W       428 W     W       1836   0.00
  1837 W       429 W     W       1837   0.00
  1838 W       430 W     W       1838   0.00
  1839 W       431 W     W       1839   0.00
  1840 W       432 W     W       1840   0.00
  1841 W       433 W     W       1841   0.00
  1842 W       434 W     W       1842   0.00
  1843 W       435 W     W       1843   0.00
  1844 W       436 W     W       1844   0.00
  1845 W       437 W     W       1845   0.00
  1846 W       438 W     W       1846   0.00
  1847 W       439 W     W       1847   0.00
  1848 W       440 W     W       1848   0.00
  1849 W       441 W     W       1849   0.00
  1850 W       442 W     W       1850   0.00
  1851 W       443 W     W       1851   0.00
  1852 W       444 W     W       1852   0.00
  1853 W       445 W     W       1853   0.00
  1854 W       446 W     W       1854   0.00
  1855 W       447 W     W       1855   0.00
  1856 W       448 W     W       1856   0.00
  1857 W       449 W     W       1857   0.00
  1858 W       450 W     W       1858   0.00
  1859 W       451 W     W       1859   0.00
  1860 W       452 W     W       1860   0.00
  1861 W       453 W     W       1861   0.00
  1862 W       454 W     W       1862   0.00
  1863 W       455 W     W       1863   0.00
  1864 W       456 W     W       1864   0.00
  1865 W       457 W     W       1865   0.00
  1866 W       458 W     W       1866   0.00
  1867 W       459 W     W       1867   0.00
  1868 W       460 W     W       1868   0.00
  1869 W       461 W     W       1869   0.00
  1870 W       462 W     W       1870   0.00
  1871 W       463 W     W       1871   0.00
  1872 W       464 W     W       1872   0.00
  1873 W       465 W     W       1873   0.00
  1874 W       466 W     W       1874   0.00
  1875 W       467 W     W       1875   0.00
  1876 W       468 W     W       1876   0.00
  1877 W       469 W     W       1877   0.00
  1878 W       470 W     W       1878   0.00
  1879 W       471 W     W       1879   0.00
  1880 W       472 W     W       1880   0.00
  1881 W       473 W     W       1881   0.00
  1882 W       474 W     W       1882   0.00
  1883 W       475 W     W       1883   0.00
  1884 W       476 W     W       1884   0.00
  1885 W       477 W     W       1885   0.00
  1886 W       478 W     W       1886   0.00
  1887 W       479 W     W       1887   0.00
  1888 W       480 W     W       1888   0.00
  1889 W       481 W     W       1889   0.00
  1890 W       482 W     W       1890   0.00
  1891 W       483 W     W       1891   0.00
  1892 W       484 W     W       1892   0.00
  1893 W       485 W     W       1893   0.00
  1894 W       486 W     W       1894   0.00
  1895 W       487 W     W       1895   0.00
  1896 W       488 W     W       1896   0.00
  1897 W       489 W     W       1897   0.00
  1898 W       490 W     W       1898   0.00
  1899 W       491 W     W       1899   0.00
  1900 W       492 W     W       1900   0.00
  1901 W       493 W     W       1901   0.00
  1902 W       494 W     W       1902   0.00
  1903 W       495 W     W       1903   0.00
  1904 W       496 W     W       1904   0.00
  1905 W       497 W     W       1905   0.00
  1906 W       498 W     W       1906   0.00
  1907 W       499 W     W       1907   0.00
  1908 W       500 W     W       1908   0.00
  1909 W       501 W     W       1909   0.00
  1910 W       502 W     W       1910   0.00
  1911 W       503 W     W       1911   0.00
  1912 W       504 W     W       1912   0.00
  1913 W       505 W     W       1913   0.00
  1914 W       506 W     W       1914   0.00
  1915 W       507 W     W       1915   0.00
  1916 W       508 W     W       1916   0.00
  1917 W       509 W     W       1917   0.00
  1918 W       510 W     W       1918   0.00
  1919 W       511 W     W       1919   0.00
  1920 W       512 W     W       1920   0.00
  1921 W       513 W     W       1921   0.00
  1922 W       514 W     W       1922   0.00
  1923 W       515 W     W       1923   0.00
  1924 W       516 W     W       1924   0.00
  1925 W       517 W     W       1925   0.00
  1926 W       518 W     W       1926   0.00
  1927 W       519 W     W       1927   0.00
  1928 W       520 W     W       1928   0.00
  1929 W       521 W     W       1929   0.00
  1930 W       522 W     W       1930   0.00
  1931 W       523 W     W       1931   0.00
  1932 W       524 W     W       1932   0.00
  1933 W       525 W     W       1933   0.00
  1934 W       526 W     W       1934   0.00
  1935 W       527 W     W       1935   0.00
  1936 W       528 W     W       1936   0.00
  1937 W       529 W     W       1937   0.00
  1938 W       530 W     W       1938   0.00
  1939 W       531 W     W       1939   0.00
  1940 W       532 W     W       1940   0.00
  1941 W       533 W     W       1941   0.00
  1942 W       534 W     W       1942   0.00
  1943 W       535 W     W       1943   0.00
  1944 W       536 W     W       1944   0.00
  1945 W       537 W     W       1945   0.00
  1946 W       538 W     W       1946   0.00
  1947 W       539 W     W       1947   0.00
  1948 W       540 W     W       1948   0.00
  1949 W       541 W     W       1949   0.00
  1950 W       542 W     W       1950   0.00
  1951 W       543 W     W       1951   0.00
  1952 W       544 W     W       1952   0.00
  1953 W       545 W     W       1953   0.00
  1954 W       546 W     W       1954   0.00
  1955 W       547 W     W       1955   0.00
  1956 W       548 W     W       1956   0.00
  1957 W       549 W     W       1957   0.00
  1958 W       550 W     W       1958   0.00
  1959 W       551 W     W       1959   0.00
  1960 W       552 W     W       1960   0.00
  1961 W       553 W     W       1961   0.00
  1962 W       554 W     W       1962   0.00
  1963 W       555 W     W       1963   0.00
  1964 W       556 W     W       1964   0.00
  1965 W       557 W     W       1965   0.00
  1966 W       558 W     W       1966   0.00
  1967 W       559 W     W       1967   0.00
  1968 W       560 W     W       1968   0.00
  1969 W       561 W     W       1969   0.00
  1970 W       562 W     W       1970   0.00
  1971 W       563 W     W       1971   0.00
  1972 W       564 W     W       1972   0.00
  1973 W       565 W     W       1973   0.00
  1974 W       566 W     W       1974   0.00
  1975 W       567 W     W       1975   0.00
  1976 W       568 W     W       1976   0.00
  1977 W       569 W     W       1977   0.00
  1978 W       570 W     W       1978   0.00
  1979 W       571 W     W       1979   0.00
  1980 W       572 W     W       1980   0.00
  1981 W       573 W     W       1981   0.00
  1982 W       574 W     W       1982   0.00
  1983 W       575 W     W       1983   0.00
  1984 W       576 W     W       1984   0.00
  1985 W       577 W     W       1985   0.00
  1986 W       578 W     W       1986   0.00
  1987 W       579 W     W       1987   0.00
  1988 W       580 W     W       1988   0.00
  1989 W       581 W     W       1989   0.00
  1990 W       582 W     W       1990   0.00
  1991 W       583 W     W       1991   0.00
  1992 W       584 W     W       1992   0.00
  1993 W       585 W     W       1993   0.00
  1994 W       586 W     W       1994   0.00
  1995 W       587 W     W       1995   0.00
  1996 W       588 W     W       1996   0.00
  1997 W       589 W     W       1997   0.00
  1998 W       590 W     W       1998   0.00
  1999 W       591 W     W       1999   0.00
  2000 W       592 W     W       2000   0.00
  2001 W       593 W     W       2001   0.00
  2002 W       594 W     W       2002   0.00
  2003 W       595 W     W       2003   0.00
  2004 W       596 W     W       2004   0.00
  2005 W       597 W     W       2005   0.00
  2006 W       598 W     W       2006   0.00
  2007 W       599 W     W       2007   0.00
  2008 W       600 W     W       2008   0.00
  2009 W       601 W     W       2009   0.00
  2010 W       602 W     W       2010   0.00
  2011 W       603 W     W       2011   0.00
  2012 W       604 W     W       2012   0.00
  2013 W       605 W     W       2013   0.00
  2014 W       606 W     W       2014   0.00
  2015 W       607 W     W       2015   0.00
  2016 W       608 W     W       2016   0.00
  2017 W       609 W     W       2017   0.00
  2018 W       610 W     W       2018   0.00
  2019 W       611 W     W       2019   0.00
  2020 W       612 W     W       2020   0.00
  2021 W       613 W     W       2021   0.00
  2022 W       614 W     W       2022   0.00
  2023 W       615 W     W       2023   0.00
  2024 W       616 W     W       2024   0.00
  2025 W       617 W     W       2025   0.00
  2026 W       618 W     W       2026   0.00
  2027 W       619 W     W       2027   0.00
  2028 W       620 W     W       2028   0.00
  2029 W       621 W     W       2029   0.00
  2030 W       622 W     W       2030   0.00
  2031 W       623 W     W       2031   0.00
  2032 W       624 W     W       2032   0.00
  2033 W       625 W     W       2033   0.00
  2034 W       626 W     W       2034   0.00
  2035 W       627 W     W       2035   0.00
  2036 W       628 W     W       2036   0.00
  2037 W       629 W     W       2037   0.00
  2038 W       630 W     W       2038   0.00
  2039 W       631 W     W       2039   0.00
  2040 W       632 W     W       2040   0.00
  2041 W       633 W     W       2041   0.00
  2042 W       634 W     W       2042   0.00
  2043 W       635 W     W       2043   0.00
  2044 W       636 W     W       2044   0.00
  2045 W       637 W     W       2045   0.00
  2046 W       638 W     W       2046   0.00
  2047 W       639 W     W       2047   0.00
  2048 W       640 W     W       2048   0.00
  2049 W       641 W     W       2049   0.00
  2050 W       642 W     W       2050   0.00
  2051 W       643 W     W       2051   0.00
  2052 W       644 W     W       2052   0.00
  2053 W       645 W     W       2053   0.00
  2054 W       646 W     W       2054   0.00
  2055 W       647 W     W       2055   0.00
  2056 W       648 W     W       2056   0.00
  2057 W       649 W     W       2057   0.00
  2058 W       650 W     W       2058   0.00
  2059 W       651 W     W       2059   0.00
  2060 W       652 W     W       2060   0.00
  2061 W       653 W     W       2061   0.00
  2062 W       654 W     W       2062   0.00
  2063 W       655 W     W       2063   0.00
  2064 W       656 W     W       2064   0.00
  2065 W       657 W     W       2065   0.00
  2066 W       658 W     W       2066   0.00
  2067 W       659 W     W       2067   0.00
  2068 W       660 W     W       2068   0.00
  2069 W       661 W     W       2069   0.00
  2070 W       662 W     W       2070   0.00
  2071 W       663 W     W       2071   0.00
  2072 W       664 W     W       2072   0.00
  2073 W       665 W     W       2073   0.00
  2074 W       666 W     W       2074   0.00
  2075 W       667 W     W       2075   0.00
  2076 W       668 W     W       2076   0.00
  2077 W       669 W     W       2077   0.00
  2078 W       670 W     W       2078   0.00
  2079 W       671 W     W       2079   0.00
  2080 W       672 W     W       2080   0.00
  2081 W       673 W     W       2081   0.00
  2082 W       674 W     W       2082   0.00
  2083 W       675 W     W       2083   0.00
  2084 W       676 W     W       2084   0.00
  2085 W       677 W     W       2085   0.00
  2086 W       678 W     W       2086   0.00
  2087 W       679 W     W       2087   0.00
  2088 W       680 W     W       2088   0.00
  2089 W       681 W     W       2089   0.00
  2090 W       682 W     W       2090   0.00
  2091 W       683 W     W       2091   0.00
  2092 W       684 W     W       2092   0.00
  2093 W       685 W     W       2093   0.00
  2094 W       686 W     W       2094   0.00
  2095 W       687 W     W       2095   0.00
  2096 W       688 W     W       2096   0.00
  2097 W       689 W     W       2097   0.00
  2098 W       690 W     W       2098   0.00
  2099 W       691 W     W       2099   0.00
  2100 W       692 W     W       2100   0.00
  2101 W       693 W     W       2101   0.00
  2102 W       694 W     W       2102   0.00
  2103 W       695 W     W       2103   0.00
  2104 W       696 W     W       2104   0.00
  2105 W       697 W     W       2105   0.00
  2106 W       698 W     W       2106   0.00
  2107 W       699 W     W       2107   0.00
  2108 W       700 W     W       2108   0.00
  2109 W       701 W     W       2109   0.00
  2110 W       702 W     W       2110   0.00
  2111 W       703 W     W       2111   0.00
  2112 W       704 W     W       2112   0.00
  2113 W       705 W     W       2113   0.00
  2114 W       706 W     W       2114   0.00
  2115 W       707 W     W       2115   0.00
  2116 W       708 W     W       2116   0.00
  2117 W       709 W     W       2117   0.00
  2118 W       710 W     W       2118   0.00
  2119 W       711 W     W       2119   0.00
  2120 W       712 W     W       2120   0.00
  2121 W       713 W     W       2121   0.00
  2122 W       714 W     W       2122   0.00
  2123 W       715 W     W       2123   0.00
  2124 W       716 W     W       2124   0.00
  2125 W       717 W     W       2125   0.00
  2126 W       718 W     W       2126   0.00
  2127 W       719 W     W       2127   0.00
  2128 W       720 W     W       2128   0.00
  2129 W       721 W     W       2129   0.00
  2130 W       722 W     W       2130   0.00
  2131 W       723 W     W       2131   0.00
  2132 W       724 W     W       2132   0.00
  2133 W       725 W     W       2133   0.00
  2134 W       726 W     W       2134   0.00
  2135 W       727 W     W       2135   0.00
  2136 W       728 W     W       2136   0.00
  2137 W       729 W     W       2137   0.00
  2138 W       730 W     W       2138   0.00
  2139 W       731 W     W       2139   0.00
  2140 W       732 W     W       2140   0.00
  2141 W       733 W     W       2141   0.00
  2142 W       734 W     W       2142   0.00
  2143 W       735 W     W       2143   0.00
  2144 W       736 W     W       2144   0.00
  2145 W       737 W     W       2145   0.00
  2146 W       738 W     W       2146   0.00
  2147 W       739 W     W       2147   0.00
  2148 W       740 W     W       2148   0.00
  2149 W       741 W     W       2149   0.00
  2150 W       742 W     W       2150   0.00
  2151 W       743 W     W       2151   0.00
  2152 W       744 W     W       2152   0.00
  2153 W       745 W     W       2153   0.00
  2154 W       746 W     W       2154   0.00
  2155 W       747 W     W       2155   0.00
  2156 W       748 W     W       2156   0.00
  2157 W       749 W     W       2157   0.00
  2158 W       750 W     W       2158   0.00
  2159 W       751 W     W       2159   0.00
  2160 W       752 W     W       2160   0.00
  2161 W       753 W     W       2161   0.00
  2162 W       754 W     W       2162   0.00
  2163 W       755 W     W       2163   0.00
  2164 W       756 W     W       2164   0.00
  2165 W       757 W     W       2165   0.00
  2166 W       758 W     W       2166   0.00
  2167 W       759 W     W       2167   0.00
  2168 W       760 W     W       2168   0.00
  2169 W       761 W     W       2169   0.00
  2170 W       762 W     W       2170   0.00
  2171 W       763 W     W       2171   0.00
  2172 W       764 W     W       2172   0.00
  2173 W       765 W     W       2173   0.00
  2174 W       766 W     W       2174   0.00
  2175 W       767 W     W       2175   0.00
  2176 W       768 W     W       2176   0.00
  2177 W       769 W     W       2177   0.00
  2178 W       770 W     W       2178   0.00
  2179 W       771 W     W       2179   0.00
  2180 W       772 W     W       2180   0.00
  2181 W       773 W     W       2181   0.00
  2182 W       774 W     W       2182   0.00
  2183 W       775 W     W       2183   0.00
  2184 W       776 W     W       2184   0.00
  2185 W       777 W     W       2185   0.00
  2186 W       778 W     W       2186   0.00
  2187 W       779 W     W       2187   0.00
  2188 W       780 W     W       2188   0.00
  2189 W       781 W     W       2189   0.00
  2190 W       782 W     W       2190   0.00
  2191 W       783 W     W       2191   0.00
  2192 W       784 W     W       2192   0.00
  2193 W       785 W     W       2193   0.00
  2194 W       786 W     W       2194   0.00
  2195 W       787 W     W       2195   0.00
  2196 W       788 W     W       2196   0.00
  2197 W       789 W     W       2197   0.00
  2198 W       790 W     W       2198   0.00
  2199 W       791 W     W       2199   0.00
  2200 W       792 W     W       2200   0.00
  2201 W       793 W     W       2201   0.00
  2202 W       794 W     W       2202   0.00
  2203 W       795 W     W       2203   0.00
  2204 W       796 W     W       2204   0.00
  2205 W       797 W     W       2205   0.00
  2206 W       798 W     W       2206   0.00
  2207 W       799 W     W       2207   0.00
  2208 W       800 W     W       2208   0.00
  2209 W       801 W     W       2209   0.00
  2210 W       802 W     W       2210   0.00
  2211 W       803 W     W       2211   0.00
  2212 W       804 W     W       2212   0.00
  2213 W       805 W     W       2213   0.00
  2214 W       806 W     W       2214   0.00
  2215 W       807 W     W       2215   0.00
  2216 W       808 W     W       2216   0.00
  2217 W       809 W     W       2217   0.00
  2218 W       810 W     W       2218   0.00
  2219 W       811 W     W       2219   0.00
  2220 W       812 W     W       2220   0.00
  2221 W       813 W     W       2221   0.00
  2222 W       814 W     W       2222   0.00
  2223 W       815 W     W       2223   0.00
  2224 W       816 W     W       2224   0.00
  2225 W       817 W     W       2225   0.00
  2226 W       818 W     W       2226   0.00
  2227 W       819 W     W       2227   0.00
  2228 W       820 W     W       2228   0.00
  2229 W       821 W     W       2229   0.00
  2230 W       822 W     W       2230   0.00
  2231 W       823 W     W       2231   0.00
  2232 W       824 W     W       2232   0.00
  2233 W       825 W     W       2233   0.00
  2234 W       826 W     W       2234   0.00
  2235 W       827 W     W       2235   0.00
  2236 W       828 W     W       2236   0.00
  2237 W       829 W     W       2237   0.00
  2238 W       830 W     W       2238   0.00
  2239 W       831 W     W       2239   0.00
  2240 W       832 W     W       2240   0.00
  2241 W       833 W     W       2241   0.00
  2242 W       834 W     W       2242   0.00
  2243 W       835 W     W       2243   0.00
  2244 W       836 W     W       2244   0.00
  2245 W       837 W     W       2245   0.00
  2246 W       838 W     W       2246   0.00
  2247 W       839 W     W       2247   0.00
  2248 W       840 W     W       2248   0.00
  2249 W       841 W     W       2249   0.00
  2250 W       842 W     W       2250   0.00
  2251 W       843 W     W       2251   0.00
  2252 W       844 W     W       2252   0.00
  2253 W       845 W     W       2253   0.00
  2254 W       846 W     W       2254   0.00
  2255 W       847 W     W       2255   0.00
  2256 W       848 W     W       2256   0.00
  2257 W       849 W     W       2257   0.00
  2258 W       850 W     W       2258   0.00
  2259 W       851 W     W       2259   0.00
  2260 W       852 W     W       2260   0.00
  2261 W       853 W     W       2261   0.00
  2262 W       854 W     W       2262   0.00
  2263 W       855 W     W       2263   0.00
  2264 W       856 W     W       2264   0.00
  2265 W       857 W     W       2265   0.00
  2266 W       858 W     W       2266   0.00
  2267 W       859 W     W       2267   0.00
  2268 W       860 W     W       2268   0.00
  2269 W       861 W     W       2269   0.00
  2270 W       862 W     W       2270   0.00
  2271 W       863 W     W       2271   0.00
  2272 W       864 W     W       2272   0.00
  2273 W       865 W     W       2273   0.00
  2274 W       866 W     W       2274   0.00
  2275 W       867 W     W       2275   0.00
  2276 W       868 W     W       2276   0.00
  2277 W       869 W     W       2277   0.00
  2278 W       870 W     W       2278   0.00
  2279 W       871 W     W       2279   0.00
  2280 W       872 W     W       2280   0.00
  2281 W       873 W     W       2281   0.00
  2282 W       874 W     W       2282   0.00
  2283 W       875 W     W       2283   0.00
  2284 W       876 W     W       2284   0.00
  2285 W       877 W     W       2285   0.00
  2286 W       878 W     W       2286   0.00
  2287 W       879 W     W       2287   0.00
  2288 W       880 W     W       2288   0.00
  2289 W       881 W     W       2289   0.00
  2290 W       882 W     W       2290   0.00
  2291 W       883 W     W       2291   0.00
  2292 W       884 W     W       2292   0.00
  2293 W       885 W     W       2293   0.00
  2294 W       886 W     W       2294   0.00
  2295 W       887 W     W       2295   0.00
  2296 W       888 W     W       2296   0.00
  2297 W       889 W     W       2297   0.00
  2298 W       890 W     W       2298   0.00
  2299 W       891 W     W       2299   0.00
  2300 W       892 W     W       2300   0.00
  2301 W       893 W     W       2301   0.00
  2302 W       894 W     W       2302   0.00
  2303 W       895 W     W       2303   0.00
  2304 W       896 W     W       2304   0.00
  2305 W       897 W     W       2305   0.00
  2306 W       898 W     W       2306   0.00
  2307 W       899 W     W       2307   0.00
  2308 W       900 W     W       2308   0.00
  2309 W       901 W     W       2309   0.00
  2310 W       902 W     W       2310   0.00
  2311 W       903 W     W       2311   0.00
  2312 W       904 W     W       2312   0.00
  2313 W       905 W     W       2313   0.00
  2314 W       906 W     W       2314   0.00
  2315 W       907 W     W       2315   0.00
  2316 W       908 W     W       2316   0.00
  2317 W       909 W     W       2317   0.00
  2318 W       910 W     W       2318   0.00
  2319 W       911 W     W       2319   0.00
  2320 W       912 W     W       2320   0.00
  2321 W       913 W     W       2321   0.00
  2322 W       914 W     W       2322   0.00
  2323 W       915 W     W       2323   0.00
  2324 W       916 W     W       2324   0.00
  2325 W       917 W     W       2325   0.00
  2326 W       918 W     W       2326   0.00
  2327 W       919 W     W       2327   0.00
  2328 W       920 W     W       2328   0.00
  2329 W       921 W     W       2329   0.00
  2330 W       922 W     W       2330   0.00
  2331 W       923 W     W       2331   0.00
  2332 W       924 W     W       2332   0.00
  2333 W       925 W     W       2333   0.00
  2334 W       926 W     W       2334   0.00
  2335 W       927 W     W       2335   0.00
  2336 W       928 W     W       2336   0.00
  2337 W       929 W     W       2337   0.00
  2338 W       930 W     W       2338   0.00
  2339 W       931 W     W       2339   0.00
  2340 W       932 W     W       2340   0.00
  2341 W       933 W     W       2341   0.00
  2342 W       934 W     W       2342   0.00
  2343 W       935 W     W       2343   0.00
  2344 W       936 W     W       2344   0.00
  2345 W       937 W     W       2345   0.00
  2346 W       938 W     W       2346   0.00
  2347 W       939 W     W       2347   0.00
  2348 W       940 W     W       2348   0.00
  2349 W       941 W     W       2349   0.00
  2350 W       942 W     W       2350   0.00
  2351 W       943 W     W       2351   0.00
  2352 W       944 W     W       2352   0.00
  2353 W       945 W     W       2353   0.00
  2354 W       946 W     W       2354   0.00
  2355 W       947 W     W       2355   0.00
  2356 W       948 W     W       2356   0.00
  2357 W       949 W     W       2357   0.00
  2358 W       950 W     W       2358   0.00
  2359 W       951 W     W       2359   0.00
  2360 W       952 W     W       2360   0.00
  2361 W       953 W     W       2361   0.00
  2362 W       954 W     W       2362   0.00
  2363 W       955 W     W       2363   0.00
  2364 W       956 W     W       2364   0.00
  2365 W       957 W     W       2365   0.00
  2366 W       958 W     W       2366   0.00
  2367 W       959 W     W       2367   0.00
  2368 W       960 W     W       2368   0.00
  2369 W       961 W     W       2369   0.00
  2370 W       962 W     W       2370   0.00
  2371 W       963 W     W       2371   0.00
  2372 W       964 W     W       2372   0.00
  2373 W       965 W     W       2373   0.00
  2374 W       966 W     W       2374   0.00
  2375 W       967 W     W       2375   0.00
  2376 W       968 W     W       2376   0.00
  2377 W       969 W     W       2377   0.00
  2378 W       970 W     W       2378   0.00
  2379 W       971 W     W       2379   0.00
  2380 W       972 W     W       2380   0.00
  2381 W       973 W     W       2381   0.00
  2382 W       974 W     W       2382   0.00
  2383 W       975 W     W       2383   0.00
  2384 W       976 W     W       2384   0.00
  2385 W       977 W     W       2385   0.00
  2386 W       978 W     W       2386   0.00
  2387 W       979 W     W       2387   0.00
  2388 W       980 W     W       2388   0.00
  2389 W       981 W     W       2389   0.00
  2390 W       982 W     W       2390   0.00
  2391 W       983 W     W       2391   0.00
  2392 W       984 W     W       2392   0.00
  2393 W       985 W     W       2393   0.00
  2394 W       986 W     W       2394   0.00
  2395 W       987 W     W       2395   0.00
  2396 W       988 W     W       2396   0.00
  2397 W       989 W     W       2397   0.00
  2398 W       990 W     W       2398   0.00
  2399 W       991 W     W       2399   0.00
  2400 W       992 W     W       2400   0.00
  2401 W       993 W     W       2401   0.00
  2402 W       994 W     W       2402   0.00
  2403 W       995 W     W       2403   0.00
  2404 W       996 W     W       2404   0.00
  2405 W       997 W     W       2405   0.00
  2406 W       998 W     W       2406   0.00
  2407 W       999 W     W       2407   0.00
  2408 W      1000 W     W       2408   0.00
  2409 W      1001 W     W       2409   0.00
  2410 W      1002 W     W       2410   0.00
  2411 W      1003 W     W       2411   0.00
  2412 W      1004 W     W       2412   0.00
  2413 W      1005 W     W       2413   0.00
  2414 W      1006 W     W       2414   0.00
  2415 W      1007 W     W       2415   0.00
  2416 W      1008 W     W       2416   0.00
  2417 W      1009 W     W       2417   0.00
  2418 W      1010 W     W       2418   0.00
  2419 W      1011 W     W       2419   0.00
  2420 W      1012 W     W       2420   0.00
  2421 W      1013 W     W       2421   0.00
  2422 W      1014 W     W       2422   0.00
  2423 W      1015 W     W       2423   0.00
  2424 W      1016 W     W       2424   0.00
  2425 W      1017 W     W       2425   0.00
  2426 W      1018 W     W       2426   0.00
  2427 W      1019 W     W       2427   0.00
  2428 W      1020 W     W       2428   0.00
  2429 W      1021 W     W       2429   0.00
  2430 W      1022 W     W       2430   0.00
  2431 W      1023 W     W       2431   0.00
  2432 W      1024 W     W       2432   0.00
  2433 W      1025 W     W       2433   0.00
  2434 W      1026 W     W       2434   0.00
  2435 W      1027 W     W       2435   0.00
  2436 W      1028 W     W       2436   0.00
  2437 W      1029 W     W       2437   0.00
  2438 W      1030 W     W       2438   0.00
  2439 W      1031 W     W       2439   0.00
  2440 W      1032 W     W       2440   0.00
  2441 W      1033 W     W       2441   0.00
  2442 W      1034 W     W       2442   0.00
  2443 W      1035 W     W       2443   0.00
  2444 W      1036 W     W       2444   0.00
  2445 W      1037 W     W       2445   0.00
  2446 W      1038 W     W       2446   0.00
  2447 W      1039 W     W       2447   0.00
  2448 W      1040 W     W       2448   0.00
  2449 W      1041 W     W       2449   0.00
  2450 W      1042 W     W       2450   0.00
  2451 W      1043 W     W       2451   0.00
  2452 W      1044 W     W       2452   0.00
  2453 W      1045 W     W       2453   0.00
  2454 W      1046 W     W       2454   0.00
  2455 W      1047 W     W       2455   0.00
  2456 W      1048 W     W       2456   0.00
  2457 W      1049 W     W       2457   0.00
  2458 W      1050 W     W       2458   0.00
  2459 W      1051 W     W       2459   0.00
  2460 W      1052 W     W       2460   0.00
  2461 W      1053 W     W       2461   0.00
  2462 W      1054 W     W       2462   0.00
  2463 W      1055 W     W       2463   0.00
  2464 W      1056 W     W       2464   0.00
  2465 W      1057 W     W       2465   0.00
  2466 W      1058 W     W       2466   0.00
  2467 W      1059 W     W       2467   0.00
  2468 W      1060 W     W       2468   0.00
  2469 W      1061 W     W       2469   0.00
  2470 W      1062 W     W       2470   0.00
  2471 W      1063 W     W       2471   0.00
  2472 W      1064 W     W       2472   0.00
  2473 W      1065 W     W       2473   0.00
  2474 W      1066 W     W       2474   0.00
  2475 W      1067 W     W       2475   0.00
  2476 W      1068 W     W       2476   0.00
  2477 W      1069 W     W       2477   0.00
  2478 W      1070 W     W       2478   0.00
  2479 W      1071 W     W       2479   0.00
  2480 W      1072 W     W       2480   0.00
  2481 W      1073 W     W       2481   0.00
  2482 W      1074 W     W       2482   0.00
  2483 W      1075 W     W       2483   0.00
  2484 W      1076 W     W       2484   0.00
  2485 W      1077 W     W       2485   0.00
  2486 W      1078 W     W       2486   0.00
  2487 W      1079 W     W       2487   0.00
  2488 W      1080 W     W       2488   0.00
  2489 W      1081 W     W       2489   0.00
  2490 W      1082 W     W       2490   0.00
  2491 W      1083 W     W       2491   0.00
  2492 W      1084 W     W       2492   0.00
  2493 W      1085 W     W       2493   0.00
  2494 W      1086 W     W       2494   0.00
  2495 W      1087 W     W       2495   0.00
  2496 W      1088 W     W       2496   0.00
  2497 W      1089 W     W       2497   0.00
  2498 W      1090 W     W       2498   0.00
  2499 W      1091 W     W       2499   0.00
  2500 W      1092 W     W       2500   0.00
  2501 W      1093 W     W       2501   0.00
  2502 W      1094 W     W       2502   0.00
  2503 W      1095 W     W       2503   0.00
  2504 W      1096 W     W       2504   0.00
  2505 W      1097 W     W       2505   0.00
  2506 W      1098 W     W       2506   0.00
  2507 W      1099 W     W       2507   0.00
  2508 W      1100 W     W       2508   0.00
  2509 W      1101 W     W       2509   0.00
  2510 W      1102 W     W       2510   0.00
  2511 W      1103 W     W       2511   0.00
  2512 W      1104 W     W       2512   0.00
  2513 W      1105 W     W       2513   0.00
  2514 W      1106 W     W       2514   0.00
  2515 W      1107 W     W       2515   0.00
  2516 W      1108 W     W       2516   0.00
  2517 W      1109 W     W       2517   0.00
  2518 W      1110 W     W       2518   0.00
  2519 W      1111 W     W       2519   0.00
  2520 W      1112 W     W       2520   0.00
  2521 W      1113 W     W       2521   0.00
  2522 W      1114 W     W       2522   0.00
  2523 W      1115 W     W       2523   0.00
  2524 W      1116 W     W       2524   0.00
  2525 W      1117 W     W       2525   0.00
  2526 W      1118 W     W       2526   0.00
  2527 W      1119 W     W       2527   0.00
  2528 W      1120 W     W       2528   0.00
  2529 W      1121 W     W       2529   0.00
  2530 W      1122 W     W       2530   0.00
  2531 W      1123 W     W       2531   0.00
  2532 W      1124 W     W       2532   0.00
  2533 W      1125 W     W       2533   0.00
  2534 W      1126 W     W       2534   0.00
  2535 W      1127 W     W       2535   0.00
  2536 W      1128 W     W       2536   0.00
  2537 W      1129 W     W       2537   0.00
  2538 W      1130 W     W       2538   0.00
  2539 W      1131 W     W       2539   0.00
  2540 W      1132 W     W       2540   0.00
  2541 W      1133 W     W       2541   0.00
  2542 W      1134 W     W       2542   0.00
  2543 W      1135 W     W       2543   0.00
  2544 W      1136 W     W       2544   0.00
  2545 W      1137 W     W       2545   0.00
  2546 W      1138 W     W       2546   0.00
  2547 W      1139 W     W       2547   0.00
  2548 W      1140 W     W       2548   0.00
  2549 W      1141 W     W       2549   0.00
  2550 W      1142 W     W       2550   0.00
  2551 W      1143 W     W       2551   0.00
  2552 W      1144 W     W       2552   0.00
  2553 W      1145 W     W       2553   0.00
  2554 W      1146 W     W       2554   0.00
  2555 W      1147 W     W       2555   0.00
  2556 W      1148 W     W       2556   0.00
  2557 W      1149 W     W       2557   0.00
  2558 W      1150 W     W       2558   0.00
  2559 W      1151 W     W       2559   0.00
  2560 W      1152 W     W       2560   0.00
  2561 W      1153 W     W       2561   0.00
  2562 W      1154 W     W       2562   0.00
  2563 W      1155 W     W       2563   0.00
  2564 W      1156 W     W       2564   0.00
  2565 W      1157 W     W       2565   0.00
  2566 W      1158 W     W       2566   0.00
  2567 W      1159 W     W       2567   0.00
  2568 W      1160 W     W       2568   0.00
  2569 W      1161 W     W       2569   0.00
  2570 W      1162 W     W       2570   0.00
  2571 W      1163 W     W       2571   0.00
  2572 W      1164 W     W       2572   0.00
  2573 W      1165 W     W       2573   0.00
  2574 W      1166 W     W       2574   0.00
  2575 W      1167 W     W       2575   0.00
  2576 W      1168 W     W       2576   0.00
  2577 W      1169 W     W       2577   0.00
  2578 W      1170 W     W       2578   0.00
  2579 W      1171 W     W       2579   0.00
  2580 W      1172 W     W       2580   0.00
  2581 W      1173 W     W       2581   0.00
  2582 W      1174 W     W       2582   0.00
  2583 W      1175 W     W       2583   0.00
  2584 W      1176 W     W       2584   0.00
  2585 W      1177 W     W       2585   0.00
  2586 W      1178 W     W       2586   0.00
  2587 W      1179 W     W       2587   0.00
  2588 W      1180 W     W       2588   0.00
  2589 W      1181 W     W       2589   0.00
  2590 W      1182 W     W       2590   0.00
  2591 W      1183 W     W       2591   0.00
  2592 W      1184 W     W       2592   0.00
  2593 W      1185 W     W       2593   0.00
  2594 W      1186 W     W       2594   0.00
  2595 W      1187 W     W       2595   0.00
  2596 W      1188 W     W       2596   0.00
  2597 W      1189 W     W       2597   0.00
  2598 W      1190 W     W       2598   0.00
  2599 W      1191 W     W       2599   0.00
  2600 W      1192 W     W       2600   0.00
  2601 W      1193 W     W       2601   0.00
  2602 W      1194 W     W       2602   0.00
  2603 W      1195 W     W       2603   0.00
  2604 W      1196 W     W       2604   0.00
  2605 W      1197 W     W       2605   0.00
  2606 W      1198 W     W       2606   0.00
  2607 W      1199 W     W       2607   0.00
  2608 W      1200 W     W       2608   0.00
  2609 W      1201 W     W       2609   0.00
  2610 W      1202 W     W       2610   0.00
  2611 W      1203 W     W       2611   0.00
  2612 W      1204 W     W       2612   0.00
  2613 W      1205 W     W       2613   0.00
  2614 W      1206 W     W       2614   0.00
  2615 W      1207 W     W       2615   0.00
  2616 W      1208 W     W       2616   0.00
  2617 W      1209 W     W       2617   0.00
  2618 W      1210 W     W       2618   0.00
  2619 W      1211 W     W       2619   0.00
  2620 W      1212 W     W       2620   0.00
  2621 W      1213 W     W       2621   0.00
  2622 W      1214 W     W       2622   0.00
  2623 W      1215 W     W       2623   0.00
  2624 W      1216 W     W       2624   0.00
  2625 W      1217 W     W       2625   0.00
  2626 W      1218 W     W       2626   0.00
  2627 W      1219 W     W       2627   0.00
  2628 W      1220 W     W       2628   0.00
  2629 W      1221 W     W       2629   0.00
  2630 W      1222 W     W       2630   0.00
  2631 W      1223 W     W       2631   0.00
  2632 W      1224 W     W       2632   0.00
  2633 W      1225 W     W       2633   0.00
  2634 W      1226 W     W       2634   0.00
  2635 W      1227 W     W       2635   0.00
  2636 W      1228 W     W       2636   0.00
  2637 W      1229 W     W       2637   0.00
  2638 W      1230 W     W       2638   0.00
  2639 W      1231 W     W       2639   0.00
  2640 W      1232 W     W       2640   0.00
  2641 W      1233 W     W       2641   0.00
  2642 W      1234 W     W       2642   0.00
  2643 W      1235 W     W       2643   0.00
  2644 W      1236 W     W       2644   0.00
  2645 W      1237 W     W       2645   0.00
  2646 W      1238 W     W       2646   0.00
  2647 W      1239 W     W       2647   0.00
  2648 W      1240 W     W       2648   0.00
  2649 W      1241 W     W       2649   0.00
  2650 W      1242 W     W       2650   0.00
  2651 W      1243 W     W       2651   0.00
  2652 W      1244 W     W       2652   0.00
  2653 W      1245 W     W       2653   0.00
  2654 W      1246 W     W       2654   0.00
  2655 W      1247 W     W       2655   0.00
  2656 W      1248 W     W       2656   0.00
  2657 W      1249 W     W       2657   0.00
  2658 W      1250 W     W       2658   0.00
  2659 W      1251 W     W       2659   0.00
  2660 W      1252 W     W       2660   0.00
  2661 W      1253 W     W       2661   0.00
  2662 W      1254 W     W       2662   0.00
  2663 W      1255 W     W       2663   0.00
  2664 W      1256 W     W       2664   0.00
  2665 W      1257 W     W       2665   0.00
  2666 W      1258 W     W       2666   0.00
  2667 W      1259 W     W       2667   0.00
  2668 W      1260 W     W       2668   0.00
  2669 W      1261 W     W       2669   0.00
  2670 W      1262 W     W       2670   0.00
  2671 W      1263 W     W       2671   0.00
  2672 W      1264 W     W       2672   0.00
  2673 W      1265 W     W       2673   0.00
  2674 W      1266 W     W       2674   0.00
  2675 W      1267 W     W       2675   0.00
  2676 W      1268 W     W       2676   0.00
  2677 W      1269 W     W       2677   0.00
  2678 W      1270 W     W       2678   0.00
  2679 W      1271 W     W       2679   0.00
  2680 W      1272 W     W       2680   0.00
  2681 W      1273 W     W       2681   0.00
  2682 W      1274 W     W       2682   0.00
  2683 W      1275 W     W       2683   0.00
  2684 W      1276 W     W       2684   0.00
  2685 W      1277 W     W       2685   0.00
  2686 W      1278 W     W       2686   0.00
  2687 W      1279 W     W       2687   0.00
  2688 W      1280 W     W       2688   0.00
  2689 W      1281 W     W       2689   0.00
  2690 W      1282 W     W       2690   0.00
  2691 W      1283 W     W       2691   0.00
  2692 W      1284 W     W       2692   0.00
  2693 W      1285 W     W       2693   0.00
  2694 W      1286 W     W       2694   0.00
  2695 W      1287 W     W       2695   0.00
  2696 W      1288 W     W       2696   0.00
  2697 W      1289 W     W       2697   0.00
  2698 W      1290 W     W       2698   0.00
  2699 W      1291 W     W       2699   0.00
  2700 W      1292 W     W       2700   0.00
  2701 W      1293 W     W       2701   0.00
  2702 W      1294 W     W       2702   0.00
  2703 W      1295 W     W       2703   0.00
  2704 W      1296 W     W       2704   0.00
  2705 W      1297 W     W       2705   0.00
  2706 W      1298 W     W       2706   0.00
  2707 W      1299 W     W       2707   0.00
  2708 W      1300 W     W       2708   0.00
  2709 W      1301 W     W       2709   0.00
  2710 W      1302 W     W       2710   0.00
  2711 W      1303 W     W       2711   0.00
  2712 W      1304 W     W       2712   0.00
  2713 W      1305 W     W       2713   0.00
  2714 W      1306 W     W       2714   0.00
  2715 W      1307 W     W       2715   0.00
  2716 W      1308 W     W       2716   0.00
  2717 W      1309 W     W       2717   0.00
  2718 W      1310 W     W       2718   0.00
  2719 W      1311 W     W       2719   0.00
  2720 W      1312 W     W       2720   0.00
  2721 W      1313 W     W       2721   0.00
  2722 W      1314 W     W       2722   0.00
  2723 W      1315 W     W       2723   0.00
  2724 W      1316 W     W       2724   0.00
  2725 W      1317 W     W       2725   0.00
  2726 W      1318 W     W       2726   0.00
  2727 W      1319 W     W       2727   0.00
  2728 W      1320 W     W       2728   0.00
  2729 W      1321 W     W       2729   0.00
  2730 W      1322 W     W       2730   0.00
  2731 W      1323 W     W       2731   0.00
  2732 W      1324 W     W       2732   0.00
  2733 W      1325 W     W       2733   0.00
  2734 W      1326 W     W       2734   0.00
  2735 W      1327 W     W       2735   0.00
  2736 W      1328 W     W       2736   0.00
  2737 W      1329 W     W       2737   0.00
  2738 W      1330 W     W       2738   0.00
  2739 W      1331 W     W       2739   0.00
  2740 W      1332 W     W       2740   0.00
  2741 W      1333 W     W       2741   0.00
  2742 W      1334 W     W       2742   0.00
  2743 W      1335 W     W       2743   0.00
  2744 W      1336 W     W       2744   0.00
  2745 W      1337 W     W       2745   0.00
  2746 W      1338 W     W       2746   0.00
  2747 W      1339 W     W       2747   0.00
  2748 W      1340 W     W       2748   0.00
  2749 W      1341 W     W       2749   0.00
  2750 W      1342 W     W       2750   0.00
  2751 W      1343 W     W       2751   0.00
  2752 W      1344 W     W       2752   0.00
  2753 W      1345 W     W       2753   0.00
  2754 W      1346 W     W       2754   0.00
  2755 W      1347 W     W       2755   0.00
  2756 W      1348 W     W       2756   0.00
  2757 W      1349 W     W       2757   0.00
  2758 W      1350 W     W       2758   0.00
  2759 W      1351 W     W       2759   0.00
  2760 W      1352 W     W       2760   0.00
  2761 W      1353 W     W       2761   0.00
  2762 W      1354 W     W       2762   0.00
  2763 W      1355 W     W       2763   0.00
  2764 W      1356 W     W       2764   0.00
  2765 W      1357 W     W       2765   0.00
  2766 W      1358 W     W       2766   0.00
  2767 W      1359 W     W       2767   0.00
  2768 W      1360 W     W       2768   0.00
  2769 W      1361 W     W       2769   0.00
  2770 W      1362 W     W       2770   0.00
  2771 W      1363 W     W       2771   0.00
  2772 W      1364 W     W       2772   0.00
  2773 W      1365 W     W       2773   0.00
  2774 W      1366 W     W       2774   0.00
  2775 W      1367 W     W       2775   0.00
  2776 W      1368 W     W       2776   0.00
  2777 W      1369 W     W       2777   0.00
  2778 W      1370 W     W       2778   0.00
  2779 W      1371 W     W       2779   0.00
  2780 W      1372 W     W       2780   0.00
  2781 W      1373 W     W       2781   0.00
  2782 W      1374 W     W       2782   0.00
  2783 W      1375 W     W       2783   0.00
  2784 W      1376 W     W       2784   0.00
  2785 W      1377 W     W       2785   0.00
  2786 W      1378 W     W       2786   0.00
  2787 W      1379 W     W       2787   0.00
  2788 W      1380 W     W       2788   0.00
  2789 W      1381 W     W       2789   0.00
  2790 W      1382 W     W       2790   0.00
  2791 W      1383 W     W       2791   0.00
  2792 W      1384 W     W       2792   0.00
  2793 W      1385 W     W       2793   0.00
  2794 W      1386 W     W       2794   0.00
  2795 W      1387 W     W       2795   0.00
  2796 W      1388 W     W       2796   0.00
  2797 W      1389 W     W       2797   0.00
  2798 W      1390 W     W       2798   0.00
  2799 W      1391 W     W       2799   0.00
  2800 W      1392 W     W       2800   0.00
  2801 W      1393 W     W       2801   0.00
  2802 W      1394 W     W       2802   0.00
  2803 W      1395 W     W       2803   0.00
  2804 W      1396 W     W       2804   0.00
  2805 W      1397 W     W       2805   0.00
  2806 W      1398 W     W       2806   0.00
  2807 W      1399 W     W       2807   0.00
  2808 W      1400 W     W       2808   0.00
  2809 W      1401 W     W       2809   0.00
  2810 W      1402 W     W       2810   0.00
  2811 W      1403 W     W       2811   0.00
  2812 W      1404 W     W       2812   0.00
  2813 W      1405 W     W       2813   0.00
  2814 W      1406 W     W       2814   0.00
  2815 W      1407 W     W       2815   0.00
  2816 W      1408 W     W       2816   0.00
  2817 W      1409 W     W       2817   0.00
  2818 W      1410 W     W       2818   0.00
  2819 W      1411 W     W       2819   0.00
  2820 W      1412 W     W       2820   0.00
  2821 W      1413 W     W       2821   0.00
  2822 W      1414 W     W       2822   0.00
  2823 W      1415 W     W       2823   0.00
  2824 W      1416 W     W       2824   0.00
  2825 W      1417 W     W       2825   0.00
  2826 W      1418 W     W       2826   0.00
  2827 W      1419 W     W       2827   0.00
  2828 W      1420 W     W       2828   0.00
  2829 W      1421 W     W       2829   0.00
  2830 W      1422 W     W       2830   0.00
  2831 W      1423 W     W       2831   0.00
  2832 W      1424 W     W       2832   0.00
  2833 W      1425 W     W       2833   0.00
  2834 W      1426 W     W       2834   0.00
  2835 W      1427 W     W       2835   0.00
  2836 W      1428 W     W       2836   0.00
  2837 W      1429 W     W       2837   0.00
  2838 W      1430 W     W       2838   0.00
  2839 W      1431 W     W       2839   0.00
  2840 W      1432 W     W       2840   0.00
  2841 W      1433 W     W       2841   0.00
  2842 W      1434 W     W       2842   0.00
  2843 W      1435 W     W       2843   0.00
  2844 W      1436 W     W       2844   0.00
  2845 W      1437 W     W       2845   0.00
  2846 W      1438 W     W       2846   0.00
  2847 W      1439 W     W       2847   0.00
  2848 W      1440 W     W       2848   0.00
  2849 W      1441 W     W       2849   0.00
  2850 W      1442 W     W       2850   0.00
  2851 W      1443 W     W       2851   0.00
  2852 W      1444 W     W       2852   0.00
  2853 W      1445 W     W       2853   0.00
  2854 W      1446 W     W       2854   0.00
  2855 W      1447 W     W       2855   0.00
  2856 W      1448 W     W       2856   0.00
  2857 W      1449 W     W       2857   0.00
  2858 W      1450 W     W       2858   0.00
  2859 W      1451 W     W       2859   0.00
  2860 W      1452 W     W       2860   0.00
  2861 W      1453 W     W       2861   0.00
  2862 W      1454 W     W       2862   0.00
  2863 W      1455 W     W       2863   0.00
  2864 W      1456 W     W       2864   0.00
  2865 W      1457 W     W       2865   0.00
  2866 W      1458 W     W       2866   0.00
  2867 W      1459 W     W       2867   0.00
  2868 W      1460 W     W       2868   0.00
  2869 W      1461 W     W       2869   0.00
  2870 W      1462 W     W       2870   0.00
  2871 W      1463 W     W       2871   0.00
  2872 W      1464 W     W       2872   0.00
  2873 W      1465 W     W       2873   0.00
  2874 W      1466 W     W       2874   0.00
  2875 W      1467 W     W       2875   0.00
  2876 W      1468 W     W       2876   0.00
  2877 W      1469 W     W       2877   0.00
  2878 W      1470 W     W       2878   0.00
  2879 W      1471 W     W       2879   0.00
  2880 W      1472 W     W       2880   0.00
  2881 W      1473 W     W       2881   0.00
  2882 W      1474 W     W       2882   0.00
  2883 W      1475 W     W       2883   0.00
  2884 W      1476 W     W       2884   0.00
  2885 W      1477 W     W       2885   0.00
  2886 W      1478 W     W       2886   0.00
  2887 W      1479 W     W       2887   0.00
  2888 W      1480 W     W       2888   0.00
  2889 W      1481 W     W       2889   0.00
  2890 W      1482 W     W       2890   0.00
  2891 W      1483 W     W       2891   0.00
  2892 W      1484 W     W       2892   0.00
  2893 W      1485 W     W       2893   0.00
  2894 W      1486 W     W       2894   0.00
  2895 W      1487 W     W       2895   0.00
  2896 W      1488 W     W       2896   0.00
  2897 W      1489 W     W       2897   0.00
  2898 W      1490 W     W       2898   0.00
  2899 W      1491 W     W       2899   0.00
  2900 W      1492 W     W       2900   0.00
  2901 W      1493 W     W       2901   0.00
  2902 W      1494 W     W       2902   0.00
  2903 W      1495 W     W       2903   0.00
  2904 W      1496 W     W       2904   0.00
  2905 W      1497 W     W       2905   0.00
  2906 W      1498 W     W       2906   0.00
  2907 W      1499 W     W       2907   0.00
  2908 W      1500 W     W       2908   0.00
  2909 W      1501 W     W       2909   0.00
  2910 W      1502 W     W       2910   0.00
  2911 W      1503 W     W       2911   0.00
  2912 W      1504 W     W       2912   0.00
  2913 W      1505 W     W       2913   0.00
  2914 W      1506 W     W       2914   0.00
  2915 W      1507 W     W       2915   0.00
  2916 W      1508 W     W       2916   0.00
  2917 W      1509 W     W       2917   0.00
  2918 W      1510 W     W       2918   0.00
  2919 W      1511 W     W       2919   0.00
  2920 W      1512 W     W       2920   0.00
  2921 W      1513 W     W       2921   0.00
  2922 W      1514 W     W       2922   0.00
  2923 W      1515 W     W       2923   0.00
  2924 W      1516 W     W       2924   0.00
  2925 W      1517 W     W       2925   0.00
  2926 W      1518 W     W       2926   0.00
  2927 W      1519 W     W       2927   0.00
  2928 W      1520 W     W       2928   0.00
  2929 W      1521 W     W       2929   0.00
  2930 W      1522 W     W       2930   0.00
  2931 W      1523 W     W       2931   0.00
  2932 W      1524 W     W       2932   0.00
  2933 W      1525 W     W       2933   0.00
  2934 W      1526 W     W       2934   0.00
  2935 W      1527 W     W       2935   0.00
  2936 W      1528 W     W       2936   0.00
  2937 W      1529 W     W       2937   0.00
  2938 W      1530 W     W       2938   0.00
  2939 W      1531 W     W       2939   0.00
  2940 W      1532 W     W       2940   0.00
  2941 W      1533 W     W       2941   0.00
  2942 W      1534 W     W       2942   0.00
  2943 W      1535 W     W       2943   0.00
  2944 W      1536 W     W       2944   0.00
  2945 W      1537 W     W       2945   0.00
  2946 W      1538 W     W       2946   0.00
  2947 W      1539 W     W       2947   0.00
  2948 W      1540 W     W       2948   0.00
  2949 W      1541 W     W       2949   0.00
  2950 W      1542 W     W       2950   0.00
  2951 W      1543 W     W       2951   0.00
  2952 W      1544 W     W       2952   0.00
  2953 W      1545 W     W       2953   0.00
  2954 W      1546 W     W       2954   0.00
  2955 W      1547 W     W       2955   0.00
  2956 W      1548 W     W       2956   0.00
  2957 W      1549 W     W       2957   0.00
  2958 W      1550 W     W       2958   0.00
  2959 W      1551 W     W       2959   0.00
  2960 W      1552 W     W       2960   0.00
  2961 W      1553 W     W       2961   0.00
  2962 W      1554 W     W       2962   0.00
  2963 W      1555 W     W       2963   0.00
  2964 W      1556 W     W       2964   0.00
  2965 W      1557 W     W       2965   0.00
  2966 W      1558 W     W       2966   0.00
  2967 W      1559 W     W       2967   0.00
  2968 W      1560 W     W       2968   0.00
  2969 W      1561 W     W       2969   0.00
  2970 W      1562 W     W       2970   0.00
  2971 W      1563 W     W       2971   0.00
  2972 W      1564 W     W       2972   0.00
  2973 W      1565 W     W       2973   0.00
  2974 W      1566 W     W       2974   0.00
  2975 W      1567 W     W       2975   0.00
  2976 W      1568 W     W       2976   0.00
  2977 W      1569 W     W       2977   0.00
  2978 W      1570 W     W       2978   0.00
  2979 W      1571 W     W       2979   0.00
  2980 W      1572 W     W       2980   0.00
  2981 W      1573 W     W       2981   0.00
  2982 W      1574 W     W       2982   0.00
  2983 W      1575 W     W       2983   0.00
  2984 W      1576 W     W       2984   0.00
  2985 W      1577 W     W       2985   0.00
  2986 W      1578 W     W       2986   0.00
  2987 W      1579 W     W       2987   0.00
  2988 W      1580 W     W       2988   0.00
  2989 W      1581 W     W       2989   0.00
  2990 W      1582 W     W       2990   0.00
  2991 W      1583 W     W       2991   0.00
  2992 W      1584 W     W       2992   0.00
  2993 W      1585 W     W       2993   0.00
  2994 W      1586 W     W       2994   0.00
  2995 W      1587 W     W       2995   0.00
  2996 W      1588 W     W       2996   0.00
  2997 W      1589 W     W       2997   0.00
  2998 W      1590 W     W       2998   0.00
  2999 W      1591 W     W       2999   0.00
  3000 W      1592 W     W       3000   0.00
  3001 W      1593 W     W       3001   0.00
  3002 W      1594 W     W       3002   0.00
  3003 W      1595 W     W       3003   0.00
  3004 W      1596 W     W       3004   0.00
  3005 W      1597 W     W       3005   0.00
  3006 W      1598 W     W       3006   0.00
  3007 W      1599 W     W       3007   0.00
  3008 W      1600 W     W       3008   0.00
  3009 W      1601 W     W       3009   0.00
  3010 W      1602 W     W       3010   0.00
  3011 W      1603 W     W       3011   0.00
  3012 W      1604 W     W       3012   0.00
  3013 W      1605 W     W       3013   0.00
  3014 W      1606 W     W       3014   0.00
  3015 W      1607 W     W       3015   0.00
  3016 W      1608 W     W       3016   0.00
  3017 W      1609 W     W       3017   0.00
  3018 W      1610 W     W       3018   0.00
  3019 W      1611 W     W       3019   0.00
  3020 W      1612 W     W       3020   0.00
  3021 W      1613 W     W       3021   0.00
  3022 W      1614 W     W       3022   0.00
  3023 W      1615 W     W       3023   0.00
  3024 W      1616 W     W       3024   0.00
  3025 W      1617 W     W       3025   0.00
  3026 W      1618 W     W       3026   0.00
  3027 W      1619 W     W       3027   0.00
  3028 W      1620 W     W       3028   0.00
  3029 W      1621 W     W       3029   0.00
  3030 W      1622 W     W       3030   0.00
  3031 W      1623 W     W       3031   0.00
  3032 W      1624 W     W       3032   0.00
  3033 W      1625 W     W       3033   0.00
  3034 W      1626 W     W       3034   0.00
  3035 W      1627 W     W       3035   0.00
  3036 W      1628 W     W       3036   0.00
  3037 W      1629 W     W       3037   0.00
  3038 W      1630 W     W       3038   0.00
  3039 W      1631 W     W       3039   0.00
  3040 W      1632 W     W       3040   0.00
  3041 W      1633 W     W       3041   0.00
  3042 W      1634 W     W       3042   0.00
  3043 W      1635 W     W       3043   0.00
  3044 W      1636 W     W       3044   0.00
  3045 W      1637 W     W       3045   0.00
  3046 W      1638 W     W       3046   0.00
  3047 W      1639 W     W       3047   0.00
  3048 W      1640 W     W       3048   0.00
  3049 W      1641 W     W       3049   0.00
  3050 W      1642 W     W       3050   0.00
  3051 W      1643 W     W       3051   0.00
  3052 W      1644 W     W       3052   0.00
  3053 W      1645 W     W       3053   0.00
  3054 W      1646 W     W       3054   0.00
  3055 W      1647 W     W       3055   0.00
  3056 W      1648 W     W       3056   0.00
  3057 W      1649 W     W       3057   0.00
  3058 W      1650 W     W       3058   0.00
  3059 W      1651 W     W       3059   0.00
  3060 W      1652 W     W       3060   0.00
  3061 W      1653 W     W       3061   0.00
  3062 W      1654 W     W       3062   0.00
  3063 W      1655 W     W       3063   0.00
  3064 W      1656 W     W       3064   0.00
  3065 W      1657 W     W       3065   0.00
  3066 W      1658 W     W       3066   0.00
  3067 W      1659 W     W       3067   0.00
  3068 W      1660 W     W       3068   0.00
  3069 W      1661 W     W       3069   0.00
  3070 W      1662 W     W       3070   0.00
  3071 W      1663 W     W       3071   0.00
  3072 W      1664 W     W       3072   0.00
  3073 W      1665 W     W       3073   0.00
  3074 W      1666 W     W       3074   0.00
  3075 W      1667 W     W       3075   0.00
  3076 W      1668 W     W       3076   0.00
  3077 W      1669 W     W       3077   0.00
  3078 W      1670 W     W       3078   0.00
  3079 W      1671 W     W       3079   0.00
  3080 W      1672 W     W       3080   0.00
  3081 W      1673 W     W       3081   0.00
  3082 W      1674 W     W       3082   0.00
  3083 W      1675 W     W       3083   0.00
  3084 W      1676 W     W       3084   0.00
  3085 W      1677 W     W       3085   0.00
  3086 W      1678 W     W       3086   0.00
  3087 W      1679 W     W       3087   0.00
  3088 W      1680 W     W       3088   0.00
  3089 W      1681 W     W       3089   0.00
  3090 W      1682 W     W       3090   0.00
  3091 W      1683 W     W       3091   0.00
  3092 W      1684 W     W       3092   0.00
  3093 W      1685 W     W       3093   0.00
  3094 W      1686 W     W       3094   0.00
  3095 W      1687 W     W       3095   0.00
  3096 W      1688 W     W       3096   0.00
  3097 W      1689 W     W       3097   0.00
  3098 W      1690 W     W       3098   0.00
  3099 W      1691 W     W       3099   0.00
  3100 W      1692 W     W       3100   0.00
  3101 W      1693 W     W       3101   0.00
  3102 W      1694 W     W       3102   0.00
  3103 W      1695 W     W       3103   0.00
  3104 W      1696 W     W       3104   0.00
  3105 W      1697 W     W       3105   0.00
  3106 W      1698 W     W       3106   0.00
  3107 W      1699 W     W       3107   0.00
  3108 W      1700 W     W       3108   0.00
  3109 W      1701 W     W       3109   0.00
  3110 W      1702 W     W       3110   0.00
  3111 W      1703 W     W       3111   0.00
  3112 W      1704 W     W       3112   0.00
  3113 W      1705 W     W       3113   0.00
  3114 W      1706 W     W       3114   0.00
  3115 W      1707 W     W       3115   0.00
  3116 W      1708 W     W       3116   0.00
  3117 W      1709 W     W       3117   0.00
  3118 W      1710 W     W       3118   0.00
  3119 W      1711 W     W       3119   0.00
  3120 W      1712 W     W       3120   0.00
  3121 W      1713 W     W       3121   0.00
  3122 W      1714 W     W       3122   0.00
  3123 W      1715 W     W       3123   0.00
  3124 W      1716 W     W       3124   0.00
  3125 W      1717 W     W       3125   0.00
  3126 W      1718 W     W       3126   0.00
  3127 W      1719 W     W       3127   0.00
  3128 W      1720 W     W       3128   0.00
  3129 W      1721 W     W       3129   0.00
  3130 W      1722 W     W       3130   0.00
  3131 W      1723 W     W       3131   0.00
  3132 W      1724 W     W       3132   0.00
  3133 W      1725 W     W       3133   0.00
  3134 W      1726 W     W       3134   0.00
  3135 W      1727 W     W       3135   0.00
  3136 W      1728 W     W       3136   0.00
  3137 W      1729 W     W       3137   0.00
  3138 W      1730 W     W       3138   0.00
  3139 W      1731 W     W       3139   0.00
  3140 W      1732 W     W       3140   0.00
  3141 W      1733 W     W       3141   0.00
  3142 W      1734 W     W       3142   0.00
  3143 W      1735 W     W       3143   0.00
  3144 W      1736 W     W       3144   0.00
  3145 W      1737 W     W       3145   0.00
  3146 W      1738 W     W       3146   0.00
  3147 W      1739 W     W       3147   0.00
  3148 W      1740 W     W       3148   0.00
  3149 W      1741 W     W       3149   0.00
  3150 W      1742 W     W       3150   0.00
  3151 W      1743 W     W       3151   0.00
  3152 W      1744 W     W       3152   0.00
  3153 W      1745 W     W       3153   0.00
  3154 W      1746 W     W       3154   0.00
  3155 W      1747 W     W       3155   0.00
  3156 W      1748 W     W       3156   0.00
  3157 W      1749 W     W       3157   0.00
  3158 W      1750 W     W       3158   0.00
  3159 W      1751 W     W       3159   0.00
  3160 W      1752 W     W       3160   0.00
  3161 W      1753 W     W       3161   0.00
  3162 W      1754 W     W       3162   0.00
  3163 W      1755 W     W       3163   0.00
  3164 W      1756 W     W       3164   0.00
  3165 W      1757 W     W       3165   0.00
  3166 W      1758 W     W       3166   0.00
  3167 W      1759 W     W       3167   0.00
  3168 W      1760 W     W       3168   0.00
  3169 W      1761 W     W       3169   0.00
  3170 W      1762 W     W       3170   0.00
  3171 W      1763 W     W       3171   0.00
  3172 W      1764 W     W       3172   0.00
  3173 W      1765 W     W       3173   0.00
  3174 W      1766 W     W       3174   0.00
  3175 W      1767 W     W       3175   0.00
  3176 W      1768 W     W       3176   0.00
  3177 W      1769 W     W       3177   0.00
  3178 W      1770 W     W       3178   0.00
  3179 W      1771 W     W       3179   0.00
  3180 W      1772 W     W       3180   0.00
  3181 W      1773 W     W       3181   0.00
  3182 W      1774 W     W       3182   0.00
  3183 W      1775 W     W       3183   0.00
  3184 W      1776 W     W       3184   0.00
  3185 W      1777 W     W       3185   0.00
  3186 W      1778 W     W       3186   0.00
  3187 W      1779 W     W       3187   0.00
  3188 W      1780 W     W       3188   0.00
  3189 W      1781 W     W       3189   0.00
  3190 W      1782 W     W       3190   0.00
  3191 W      1783 W     W       3191   0.00
  3192 W      1784 W     W       3192   0.00
  3193 W      1785 W     W       3193   0.00
  3194 W      1786 W     W       3194   0.00
  3195 W      1787 W     W       3195   0.00
  3196 W      1788 W     W       3196   0.00
  3197 W      1789 W     W       3197   0.00
  3198 W      1790 W     W       3198   0.00
  3199 W      1791 W     W       3199   0.00
  3200 W      1792 W     W       3200   0.00
  3201 W      1793 W     W       3201   0.00
  3202 W      1794 W     W       3202   0.00
  3203 W      1795 W     W       3203   0.00
  3204 W      1796 W     W       3204   0.00
  3205 W      1797 W     W       3205   0.00
  3206 W      1798 W     W       3206   0.00
  3207 W      1799 W     W       3207   0.00
  3208 W      1800 W     W       3208   0.00
  3209 W      1801 W     W       3209   0.00
  3210 W      1802 W     W       3210   0.00
  3211 W      1803 W     W       3211   0.00
  3212 W      1804 W     W       3212   0.00
  3213 W      1805 W     W       3213   0.00
  3214 W      1806 W     W       3214   0.00
  3215 W      1807 W     W       3215   0.00
  3216 W      1808 W     W       3216   0.00
  3217 W      1809 W     W       3217   0.00
  3218 W      1810 W     W       3218   0.00
  3219 W      1811 W     W       3219   0.00
  3220 W      1812 W     W       3220   0.00
  3221 W      1813 W     W       3221   0.00
  3222 W      1814 W     W       3222   0.00
  3223 W      1815 W     W       3223   0.00
  3224 W      1816 W     W       3224   0.00
  3225 W      1817 W     W       3225   0.00
  3226 W      1818 W     W       3226   0.00
  3227 W      1819 W     W       3227   0.00
  3228 W      1820 W     W       3228   0.00
  3229 W      1821 W     W       3229   0.00
  3230 W      1822 W     W       3230   0.00
  3231 W      1823 W     W       3231   0.00
  3232 W      1824 W     W       3232   0.00
  3233 W      1825 W     W       3233   0.00
  3234 W      1826 W     W       3234   0.00
  3235 W      1827 W     W       3235   0.00
  3236 W      1828 W     W       3236   0.00
  3237 W      1829 W     W       3237   0.00
  3238 W      1830 W     W       3238   0.00
  3239 W      1831 W     W       3239   0.00
  3240 W      1832 W     W       3240   0.00
  3241 W      1833 W     W       3241   0.00
  3242 W      1834 W     W       3242   0.00
  3243 W      1835 W     W       3243   0.00
  3244 W      1836 W     W       3244   0.00
  3245 W      1837 W     W       3245   0.00
  3246 W      1838 W     W       3246   0.00
  3247 W      1839 W     W       3247   0.00
  3248 W      1840 W     W       3248   0.00
  3249 W      1841 W     W       3249   0.00
  3250 W      1842 W     W       3250   0.00
  3251 W      1843 W     W       3251   0.00
  3252 W      1844 W     W       3252   0.00
  3253 W      1845 W     W       3253   0.00
  3254 W      1846 W     W       3254   0.00
  3255 W      1847 W     W       3255   0.00
  3256 W      1848 W     W       3256   0.00
  3257 W      1849 W     W       3257   0.00
  3258 W      1850 W     W       3258   0.00
  3259 W      1851 W     W       3259   0.00
  3260 W      1852 W     W       3260   0.00
  3261 W      1853 W     W       3261   0.00
  3262 W      1854 W     W       3262   0.00
  3263 W      1855 W     W       3263   0.00
  3264 W      1856 W     W       3264   0.00
  3265 W      1857 W     W       3265   0.00
  3266 W      1858 W     W       3266   0.00
  3267 W      1859 W     W       3267   0.00
  3268 W      1860 W     W       3268   0.00
  3269 W      1861 W     W       3269   0.00
  3270 W      1862 W     W       3270   0.00
  3271 W      1863 W     W       3271   0.00
  3272 W      1864 W     W       3272   0.00
  3273 W      1865 W     W       3273   0.00
  3274 W      1866 W     W       3274   0.00
  3275 W      1867 W     W       3275   0.00
  3276 W      1868 W     W       3276   0.00
  3277 W      1869 W     W       3277   0.00
  3278 W      1870 W     W       3278   0.00
  3279 W      1871 W     W       3279   0.00
  3280 W      1872 W     W       3280   0.00
  3281 W      1873 W     W       3281   0.00
  3282 W      1874 W     W       3282   0.00
  3283 W      1875 W     W       3283   0.00
  3284 W      1876 W     W       3284   0.00
  3285 W      1877 W     W       3285   0.00
  3286 W      1878 W     W       3286   0.00
  3287 W      1879 W     W       3287   0.00
  3288 W      1880 W     W       3288   0.00

[ bonds ]
     1      2 1 0.4 7000
     2      3 1 0.42 1350
     3      4 1 0.312 2500
     3      5 1 0.47 5000
     5      6 1 0.47 3800
     6      7 1 0.47 3800
     7      8 1 0.47 3800
     4      9 1 0.47 3600
     9     10 1 0.47 3800
    10     11 1 0.47 3800
    11     12 1 0.47 3800
    13     14 1 0.4 7000
    14     15 1 0.42 1350
    15     16 1 0.312 2500
    15     17 1 0.47 5000
    17     18 1 0.47 3800
    18     19 1 0.47 3800
    19     20 1 0.47 3800
    16     21 1 0.47 3600
    21     22 1 0.47 3800
    22     23 1 0.47 3800
    23     24 1 0.47 3800
    25     26 1 0.4 7000
    26     27 1 0.42 1350
    27     28 1 0.312 2500
    27     29 1 0.47 5000
    29     30 1 0.47 3800
    30     31 1 0.47 3800
    31     32 1 0.47 3800
    28     33 1 0.47 3600
    33     34 1 0.47 3800
    34     35 1 0.47 3800
    35     36 1 0.47 3800
    37     38 1 0.4 7000
    38     39 1 0.42 1350
    39     40 1 0.312 2500
    39     41 1 0.47 5000
    41     42 1 0.47 3800
    42     43 1 0.47 3800
    43     44 1 0.47 3800
    40     45 1 0.47 3600
    45     46 1 0.47 3800
    46     47 1 0.47 3800
    47     48 1 0.47 3800
    49     50 1 0.4 7000
    50     51 1 0.42 1350
    51     52 1 0.312 2500
    51     53 1 0.47 5000
    53     54 1 0.47 3800
    54     55 1 0.47 3800
    55     56 1 0.47 3800
    52     57 1 0.47 3600
    57     58 1 0.47 3800
    58     59 1 0.47 3800
    59     60 1 0.47 3800
    61     62 1 0.4 7000
    62     63 1 0.42 1350
    63     64 1 0.312 2500
    63     65 1 0.47 5000
    65     66 1 0.47 3800
    66     67 1 0.47 3800
    67     68 1 0.47 3800
    64     69 1 0.47 3600
    69     70 1 0.47 3800
    70     71 1 0.47 3800
    71     72 1 0.47 3800
    73     74 1 0.4 7000
    74     75 1 0.42 1350
    75     76 1 0.312 2500
    75     77 1 0.47 5000
    77     78 1 0.47 3800
    78     79 1 0.47 3800
    79     80 1 0.47 3800
    76     81 1 0.47 3600
    81     82 1 0.47 3800
    82     83 1 0.47 3800
    83     84 1 0.47 3800
    85     86 1 0.4 7000
    86     87 1 0.42 1350
    87     88 1 0.312 2500
    87     89 1 0.47 5000
    89     90 1 0.47 3800
    90     91 1 0.47 3800
    91     92 1 0.47 3800
    88     93 1 0.47 3600
    93     94 1 0.47 3800
    94     95 1 0.47 3800
    95     96 1 0.47 3800
    97     98 1 0.4 7000
    98     99 1 0.42 1350
    99    100 1 0.312 2500
    99    101 1 0.47 5000
   101    102 1 0.47 3800
   102    103 1 0.47 3800
   103    104 1 0.47 3800
   100    105 1 0.47 3600
   105    106 1 0.47 3800
   106    107 1 0.47 3800
   107    108 1 0.47 3800
   109    110 1 0.4 7000
   110    111 1 0.42 1350
   111    112 1 0.312 2500
   111    113 1 0.47 5000
   113    114 1 0.47 3800
   114    115 1 0.47 3800
   115    116 1 0.47 3800
   112    117 1 0.47 3600
   117    118 1 0.47 3800
   118    119 1 0.47 3800
   119    120 1 0.47 3800
   121    122 1 0.4 7000
   122    123 1 0.42 1350
   123    124 1 0.312 2500
   123    125 1 0.47 5000
   125    126 1 0.47 3800
   126    127 1 0.47 3800
   127    128 1 0.47 3800
   124    129 1 0.47 3600
   129    130 1 0.47 3800
   130    131 1 0.47 3800
   131    132 1 0.47 3800
   133    134 1 0.4 7000
   134    135 1 0.42 1350
   135    136 1 0.312 2500
   135    137 1 0.47 5000
   137    138 1 0.47 3800
   138    139 1 0.47 3800
   139    140 1 0.47 3800
   136    141 1 0.47 3600
   141    142 1 0.47 3800
   142    143 1 0.47 3800
   143    144 1 0.47 3800
   145    146 1 0.4 7000
   146    147 1 0.42 1350
   147    148 1 0.312 2500
   147    149 1 0.47 5000
   149    150 1 0.47 3800
   150    151 1 0.47 3800
   151    152 1 0.47 3800
   148    153 1 0.47 3600
   153    154 1 0.47 3800
   154    155 1 0.47 3800
   155    156 1 0.47 3800
   157    158 1 0.4 7000
   158    159 1 0.42 1350
   159    160 1 0.312 2500
   159    161 1 0.47 5000
   161    162 1 0.47 3800
   162    163 1 0.47 3800
   163    164 1 0.47 3800
   160    165 1 0.47 3600
   165    166 1 0.47 3800
   166    167 1 0.47 3800
   167    168 1 0.47 3800
   169    170 1 0.4 7000
   170    171 1 0.42 1350
   171    172 1 0.312 2500
   171    173 1 0.47 5000
   173    174 1 0.47 3800
   174    175 1 0.47 3800
   175    176 1 0.47 3800
   172    177 1 0.47 3600
   177    178 1 0.47 3800
   178    179 1 0.47 3800
   179    180 1 0.47 3800
   181    182 1 0.4 7000
   182    183 1 0.42 1350
   183    184 1 0.312 2500
   183    185 1 0.47 5000
   185    186 1 0.47 3800
   186    187 1 0.47 3800
   187    188 1 0.47 3800
   184    189 1 0.47 3600
   189    190 1 0.47 3800
   190    191 1 0.47 3800
   191    192 1 0.47 3800
   193    194 1 0.4 7000
   194    195 1 0.42 1350
   195    196 1 0.312 2500
   195    197 1 0.47 5000
   197    198 1 0.47 3800
   198    199 1 0.47 3800
   199    200 1 0.47 3800
   196    201 1 0.47 3600
   201    202 1 0.47 3800
   202    203 1 0.47 3800
   203    204 1 0.47 3800
   205    206 1 0.4 7000
   206    207 1 0.42 1350
   207    208 1 0.312 2500
   207    209 1 0.47 5000
   209    210 1 0.47 3800
   210    211 1 0.47 3800
   211    212 1 0.47 3800
   208    213 1 0.47 3600
   213    214 1 0.47 3800
   214    215 1 0.47 3800
   215    216 1 0.47 3800
   217    218 1 0.4 7000
   218    219 1 0.42 1350
   219    220 1 0.312 2500
   219    221 1 0.47 5000
   221    222 1 0.47 3800
   222    223 1 0.47 3800
   223    224 1 0.47 3800
   220    225 1 0.47 3600
   225    226 1 0.47 3800
   226    227 1 0.47 3800
   227    228 1 0.47 3800
   229    230 1 0.4 7000
   230    231 1 0.42 1350
   231    232 1 0.312 2500
   231    233 1 0.47 5000
   233    234 1 0.47 3800
   234    235 1 0.47 3800
   235    236 1 0.47 3800
   232    237 1 0.47 3600
   237    238 1 0.47 3800
   238    239 1 0.47 3800
   239    240 1 0.47 3800
   241    242 1 0.4 7000
   242    243 1 0.42 1350
   243    244 1 0.312 2500
   243    245 1 0.47 5000
   245    246 1 0.47 3800
   246    247 1 0.47 3800
   247    248 1 0.47 3800
   244    249 1 0.47 3600
   249    250 1 0.47 3800
   250    251 1 0.47 3800
   251    252 1 0.47 3800
   253    254 1 0.4 7000
   254    255 1 0.42 1350
   255    256 1 0.312 2500
   255    257 1 0.47 5000
   257    258 1 0.47 3800
   258    259 1 0.47 3800
   259    260 1 0.47 3800
   256    261 1 0.47 3600
   261    262 1 0.47 3800
   262    263 1 0.47 3800
   263    264 1 0.47 3800
   265    266 1 0.4 7000
   266    267 1 0.42 1350
   267    268 1 0.312 2500
   267    269 1 0.47 5000
   269    270 1 0.47 3800
   270    271 1 0.47 3800
   271    272 1 0.47 3800
   268    273 1 0.47 3600
   273    274 1 0.47 3800
   274    275 1 0.47 3800
   275    276 1 0.47 3800
   277    278 1 0.4 7000
   278    279 1 0.42 1350
   279    280 1 0.312 2500
   279    281 1 0.47 5000
   281    282 1 0.47 3800
   282    283 1 0.47 3800
   283    284 1 0.47 3800
   280    285 1 0.47 3600
   285    286 1 0.47 3800
   286    287 1 0.47 3800
   287    288 1 0.47 3800
   289    290 1 0.4 7000
   290    291 1 0.42 1350
   291    292 1 0.312 2500
   291    293 1 0.47 5000
   293    294 1 0.47 3800
   294    295 1 0.47 3800
   295    296 1 0.47 3800
   292    297 1 0.47 3600
   297    298 1 0.47 3800
   298    299 1 0.47 3800
   299    300 1 0.47 3800
   301    302 1 0.4 7000
   302    303 1 0.42 1350
   303    304 1 0.312 2500
   303    305 1 0.47 5000
   305    306 1 0.47 3800
   306    307 1 0.47 3800
   307    308 1 0.47 3800
   304    309 1 0.47 3600
   309    310 1 0.47 3800
   310    311 1 0.47 3800
   311    312 1 0.47 3800
   313    314 1 0.4 7000
   314    315 1 0.42 1350
   315    316 1 0.312 2500
   315    317 1 0.47 5000
   317    318 1 0.47 3800
   318    319 1 0.47 3800
   319    320 1 0.47 3800
   316    321 1 0.47 3600
   321    322 1 0.47 3800
   322    323 1 0.47 3800
   323    324 1 0.47 3800
   325    326 1 0.4 7000
   326    327 1 0.42 1350
   327    328 1 0.312 2500
   327    329 1 0.47 5000
   329    330 1 0.47 3800
   330    331 1 0.47 3800
   331    332 1 0.47 3800
   328    333 1 0.47 3600
   333    334 1 0.47 3800
   334    335 1 0.47 3800
   335    336 1 0.47 3800
   337    338 1 0.4 7000
   338    339 1 0.42 1350
   339    340 1 0.312 2500
   339    341 1 0.47 5000
   341    342 1 0.47 3800
   342    343 1 0.47 3800
   343    344 1 0.47 3800
   340    345 1 0.47 3600
   345    346 1 0.47 3800
   346    347 1 0.47 3800
   347    348 1 0.47 3800
   349    350 1 0.4 7000
   350    351 1 0.42 1350
   351    352 1 0.312 2500
   351    353 1 0.47 5000
   353    354 1 0.47 3800
   354    355 1 0.47 3800
   355    356 1 0.47 3800
   352    357 1 0.47 3600
   357    358 1 0.47 3800
   358    359 1 0.47 3800
   359    360 1 0.47 3800
   361    362 1 0.4 7000
   362    363 1 0.42 1350
   363    364 1 0.312 2500
   363    365 1 0.47 5000
   365    366 1 0.47 3800
   366    367 1 0.47 3800
   367    368 1 0.47 3800
   364    369 1 0.47 3600
   369    370 1 0.47 3800
   370    371 1 0.47 3800
   371    372 1 0.47 3800
   373    374 1 0.4 7000
   374    375 1 0.42 1350
   375    376 1 0.312 2500
   375    377 1 0.47 5000
   377    378 1 0.47 3800
   378    379 1 0.47 3800
   379    380 1 0.47 3800
   376    381 1 0.47 3600
   381    382 1 0.47 3800
   382    383 1 0.47 3800
   383    384 1 0.47 3800
   385    386 1 0.4 7000
   386    387 1 0.42 1350
   387    388 1 0.312 2500
   387    389 1 0.47 5000
   389    390 1 0.47 3800
   390    391 1 0.47 3800
   391    392 1 0.47 3800
   388    393 1 0.47 3600
   393    394 1 0.47 3800
   394    395 1 0.47 3800
   395    396 1 0.47 3800
   397    398 1 0.4 7000
   398    399 1 0.42 1350
   399    400 1 0.312 2500
   399    401 1 0.47 5000
   401    402 1 0.47 3800
   402    403 1 0.47 3800
   403    404 1 0.47 3800
   400    405 1 0.47 3600
   405    406 1 0.47 3800
   406    407 1 0.47 3800
   407    408 1 0.47 3800
   409    410 1 0.4 7000
   410    411 1 0.42 1350
   411    412 1 0.312 2500
   411    413 1 0.47 5000
   413    414 1 0.47 3800
   414    415 1 0.47 3800
   415    416 1 0.47 3800
   412    417 1 0.47 3600
   417    418 1 0.47 3800
   418    419 1 0.47 3800
   419    420 1 0.47 3800
   421    422 1 0.4 7000
   422    423 1 0.42 1350
   423    424 1 0.312 2500
   423    425 1 0.47 5000
   425    426 1 0.47 3800
   426    427 1 0.47 3800
   427    428 1 0.47 3800
   424    429 1 0.47 3600
   429    430 1 0.47 3800
   430    431 1 0.47 3800
   431    432 1 0.47 3800
   433    434 1 0.4 7000
   434    435 1 0.42 1350
   435    436 1 0.312 2500
   435    437 1 0.47 5000
   437    438 1 0.47 3800
   438    439 1 0.47 3800
   439    440 1 0.47 3800
   436    441 1 0.47 3600
   441    442 1 0.47 3800
   442    443 1 0.47 3800
   443    444 1 0.47 3800
   445    446 1 0.4 7000
   446    447 1 0.42 1350
   447    448 1 0.312 2500
   447    449 1 0.47 5000
   449    450 1 0.47 3800
   450    451 1 0.47 3800
   451    452 1 0.47 3800
   448    453 1 0.47 3600
   453    454 1 0.47 3800
   454    455 1 0.47 3800
   455    456 1 0.47 3800
   457    458 1 0.4 7000
   458    459 1 0.42 1350
   459    460 1 0.312 2500
   459    461 1 0.47 5000
   461    462 1 0.47 3800
   462    463 1 0.47 3800
   463    464 1 0.47 3800
   460    465 1 0.47 3600
   465    466 1 0.47 3800
   466    467 1 0.47 3800
   467    468 1 0.47 3800
   469    470 1 0.4 7000
   470    471 1 0.42 1350
   471    472 1 0.312 2500
   471    473 1 0.47 5000
   473    474 1 0.47 3800
   474    475 1 0.47 3800
   475    476 1 0.47 3800
   472    477 1 0.47 3600
   477    478 1 0.47 3800
   478    479 1 0.47 3800
   479    480 1 0.47 3800
   481    482 1 0.4 7000
   482    483 1 0.42 1350
   483    484 1 0.312 2500
   483    485 1 0.47 5000
   485    486 1 0.47 3800
   486    487 1 0.47 3800
   487    488 1 0.47 3800
   484    489 1 0.47 3600
   489    490 1 0.47 3800
   490    491 1 0.47 3800
   491    492 1 0.47 3800
   493    494 1 0.4 7000
   494    495 1 0.42 1350
   495    496 1 0.312 2500
   495    497 1 0.47 5000
   497    498 1 0.47 3800
   498    499 1 0.47 3800
   499    500 1 0.47 3800
   496    501 1 0.47 3600
   501    502 1 0.47 3800
   502    503 1 0.47 3800
   503    504 1 0.47 3800
   505    506 1 0.4 7000
   506    507 1 0.42 1350
   507    508 1 0.312 2500
   507    509 1 0.47 5000
   509    510 1 0.47 3800
   510    511 1 0.47 3800
   511    512 1 0.47 3800
   508    513 1 0.47 3600
   513    514 1 0.47 3800
   514    515 1 0.47 3800
   515    516 1 0.47 3800
   517    518 1 0.4 7000
   518    519 1 0.42 1350
   519    520 1 0.312 2500
   519    521 1 0.47 5000
   521    522 1 0.47 3800
   522    523 1 0.47 3800
   523    524 1 0.47 3800
   520    525 1 0.47 3600
   525    526 1 0.47 3800
   526    527 1 0.47 3800
   527    528 1 0.47 3800
   529    530 1 0.4 7000
   530    531 1 0.42 1350
   531    532 1 0.312 2500
   531    533 1 0.47 5000
   533    534 1 0.47 3800
   534    535 1 0.47 3800
   535    536 1 0.47 3800
   532    537 1 0.47 3600
   537    538 1 0.47 3800
   538    539 1 0.47 3800
   539    540 1 0.47 3800
   541    542 1 0.4 7000
   542    543 1 0.42 1350
   543    544 1 0.312 2500
   543    545 1 0.47 5000
   545    546 1 0.47 3800
   546    547 1 0.47 3800
   547    548 1 0.47 3800
   544    549 1 0.47 3600
   549    550 1 0.47 3800
   550    551 1 0.47 3800
   551    552 1 0.47 3800
   553    554 1 0.4 7000
   554    555 1 0.42 1350
   555    556 1 0.312 2500
   555    557 1 0.47 5000
   557    558 1 0.47 3800
   558    559 1 0.47 3800
   559    560 1 0.47 3800
   556    561 1 0.47 3600
   561    562 1 0.47 3800
   562    563 1 0.47 3800
   563    564 1 0.47 3800
   565    566 1 0.4 7000
   566    567 1 0.42 1350
   567    568 1 0.312 2500
   567    569 1 0.47 5000
   569    570 1 0.47 3800
   570    571 1 0.47 3800
   571    572 1 0.47 3800
   568    573 1 0.47 3600
   573    574 1 0.47 3800
   574    575 1 0.47 3800
   575    576 1 0.47 3800
   577    578 1 0.4 7000
   578    579 1 0.42 1350
   579    580 1 0.312 2500
   579    581 1 0.47 5000
   581    582 1 0.47 3800
   582    583 1 0.47 3800
   583    584 1 0.47 3800
   580    585 1 0.47 3600
   585    586 1 0.47 3800
   586    587 1 0.47 3800
   587    588 1 0.47 3800
   589    590 1 0.4 7000
   590    591 1 0.42 1350
   591    592 1 0.312 2500
   591    593 1 0.47 5000
   593    594 1 0.47 3800
   594    595 1 0.47 3800
   595    596 1 0.47 3800
   592    597 1 0.47 3600
   597    598 1 0.47 3800
   598    599 1 0.47 3800
   599    600 1 0.47 3800
   601    602 1 0.4 7000
   602    603 1 0.42 1350
   603    604 1 0.312 2500
   603    605 1 0.47 5000
   605    606 1 0.47 3800
   606    607 1 0.47 3800
   607    608 1 0.47 3800
   604    609 1 0.47 3600
   609    610 1 0.47 3800
   610    611 1 0.47 3800
   611    612 1 0.47 3800
   613    614 1 0.4 7000
   614    615 1 0.42 1350
   615    616 1 0.312 2500
   615    617 1 0.47 5000
   617    618 1 0.47 3800
   618    619 1 0.47 3800
   619    620 1 0.47 3800
   616    621 1 0.47 3600
   621    622 1 0.47 3800
   622    623 1 0.47 3800
   623    624 1 0.47 3800
   625    626 1 0.4 7000
   626    627 1 0.42 1350
   627    628 1 0.312 2500
   627    629 1 0.47 5000
   629    630 1 0.47 3800
   630    631 1 0.47 3800
   631    632 1 0.47 3800
   628    633 1 0.47 3600
   633    634 1 0.47 3800
   634    635 1 0.47 3800
   635    636 1 0.47 3800
   637    638 1 0.4 7000
   638    639 1 0.42 1350
   639    640 1 0.312 2500
   639    641 1 0.47 5000
   641    642 1 0.47 3800
   642    643 1 0.47 3800
   643    644 1 0.47 3800
   640    645 1 0.47 3600
   645    646 1 0.47 3800
   646    647 1 0.47 3800
   647    648 1 0.47 3800
   649    650 1 0.4 7000
   650    651 1 0.42 1350
   651    652 1 0.312 2500
   651    653 1 0.47 5000
   653    654 1 0.47 3800
   654    655 1 0.47 3800
   655    656 1 0.47 3800
   652    657 1 0.47 3600
   657    658 1 0.47 3800
   658    659 1 0.47 3800
   659    660 1 0.47 3800
   661    662 1 0.4 7000
   662    663 1 0.42 1350
   663    664 1 0.312 2500
   663    665 1 0.47 5000
   665    666 1 0.47 3800
   666    667 1 0.47 3800
   667    668 1 0.47 3800
   664    669 1 0.47 3600
   669    670 1 0.47 3800
   670    671 1 0.47 3800
   671    672 1 0.47 3800
   673    674 1 0.4 7000
   674    675 1 0.42 1350
   675    676 1 0.312 2500
   675    677 1 0.47 5000
   677    678 1 0.47 3800
   678    679 1 0.47 3800
   679    680 1 0.47 3800
   676    681 1 0.47 3600
   681    682 1 0.47 3800
   682    683 1 0.47 3800
   683    684 1 0.47 3800
   685    686 1 0.4 7000
   686    687 1 0.42 1350
   687    688 1 0.312 2500
   687    689 1 0.47 5000
   689    690 1 0.47 3800
   690    691 1 0.47 3800
   691    692 1 0.47 3800
   688    693 1 0.47 3600
   693    694 1 0.47 3800
   694    695 1 0.47 3800
   695    696 1 0.47 3800
   697    698 1 0.4 7000
   698    699 1 0.42 1350
   699    700 1 0.312 2500
   699    701 1 0.47 5000
   701    702 1 0.47 3800
   702    703 1 0.47 3800
   703    704 1 0.47 3800
   700    705 1 0.47 3600
   705    706 1 0.47 3800
   706    707 1 0.47 3800
   707    708 1 0.47 3800
   709    710 1 0.4 7000
   710    711 1 0.42 1350
   711    712 1 0.312 2500
   711    713 1 0.47 5000
   713    714 1 0.47 3800
   714    715 1 0.47 3800
   715    716 1 0.47 3800
   712    717 1 0.47 3600
   717    718 1 0.47 3800
   718    719 1 0.47 3800
   719    720 1 0.47 3800
   721    722 1 0.4 7000
   722    723 1 0.42 1350
   723    724 1 0.312 2500
   723    725 1 0.47 5000
   725    726 1 0.47 3800
   726    727 1 0.47 3800
   727    728 1 0.47 3800
   724    729 1 0.47 3600
   729    730 1 0.47 3800
   730    731 1 0.47 3800
   731    732 1 0.47 3800
   733    734 1 0.4 7000
   734    735 1 0.42 1350
   735    736 1 0.312 2500
   735    737 1 0.47 5000
   737    738 1 0.47 3800
   738    739 1 0.47 3800
   739    740 1 0.47 3800
   736    741 1 0.47 3600
   741    742 1 0.47 3800
   742    743 1 0.47 3800
   743    744 1 0.47 3800
   745    746 1 0.4 7000
   746    747 1 0.42 1350
   747    748 1 0.312 2500
   747    749 1 0.47 5000
   749    750 1 0.47 3800
   750    751 1 0.47 3800
   751    752 1 0.47 3800
   748    753 1 0.47 3600
   753    754 1 0.47 3800
   754    755 1 0.47 3800
   755    756 1 0.47 3800
   757    758 1 0.4 7000
   758    759 1 0.42 1350
   759    760 1 0.312 2500
   759    761 1 0.47 5000
   761    762 1 0.47 3800
   762    763 1 0.47 3800
   763    764 1 0.47 3800
   760    765 1 0.47 3600
   765    766 1 0.47 3800
   766    767 1 0.47 3800
   767    768 1 0.47 3800
   769    770 1 0.4 7000
   770    771 1 0.42 1350
   771    772 1 0.312 2500
   771    773 1 0.47 5000
   773    774 1 0.47 3800
   774    775 1 0.47 3800
   775    776 1 0.47 3800
   772    777 1 0.47 3600
   777    778 1 0.47 3800
   778    779 1 0.47 3800
   779    780 1 0.47 3800
   781    782 1 0.4 7000
   782    783 1 0.42 1350
   783    784 1 0.312 2500
   783    785 1 0.47 5000
   785    786 1 0.47 3800
   786    787 1 0.47 3800
   787    788 1 0.47 3800
   784    789 1 0.47 3600
   789    790 1 0.47 3800
   790    791 1 0.47 3800
   791    792 1 0.47 3800
   793    794 1 0.4 7000
   794    795 1 0.42 1350
   795    796 1 0.312 2500
   795    797 1 0.47 5000
   797    798 1 0.47 3800
   798    799 1 0.47 3800
   799    800 1 0.47 3800
   796    801 1 0.47 3600
   801    802 1 0.47 3800
   802    803 1 0.47 3800
   803    804 1 0.47 3800
   805    806 1 0.4 7000
   806    807 1 0.42 1350
   807    808 1 0.312 2500
   807    809 1 0.47 5000
   809    810 1 0.47 3800
   810    811 1 0.47 3800
   811    812 1 0.47 3800
   808    813 1 0.47 3600
   813    814 1 0.47 3800
   814    815 1 0.47 3800
   815    816 1 0.47 3800
   817    818 1 0.4 7000
   818    819 1 0.42 1350
   819    820 1 0.312 2500
   819    821 1 0.47 5000
   821    822 1 0.47 3800
   822    823 1 0.47 3800
   823    824 1 0.47 3800
   820    825 1 0.47 3600
   825    826 1 0.47 3800
   826    827 1 0.47 3800
   827    828 1 0.47 3800
   829    830 1 0.4 7000
   830    831 1 0.42 1350
   831    832 1 0.312 2500
   831    833 1 0.47 5000
   833    834 1 0.47 3800
   834    835 1 0.47 3800
   835    836 1 0.47 3800
   832    837 1 0.47 3600
   837    838 1 0.47 3800
   838    839 1 0.47 3800
   839    840 1 0.47 3800
   841    842 1 0.4 7000
   842    843 1 0.42 1350
   843    844 1 0.312 2500
   843    845 1 0.47 5000
   845    846 1 0.47 3800
   846    847 1 0.47 3800
   847    848 1 0.47 3800
   844    849 1 0.47 3600
   849    850 1 0.47 3800
   850    851 1 0.47 3800
   851    852 1 0.47 3800
   853    854 1 0.4 7000
   854    855 1 0.42 1350
   855    856 1 0.312 2500
   855    857 1 0.47 5000
   857    858 1 0.47 3800
   858    859 1 0.47 3800
   859    860 1 0.47 3800
   856    861 1 0.47 3600
   861    862 1 0.47 3800
   862    863 1 0.47 3800
   863    864 1 0.47 3800
   865    866 1 0.4 7000
   866    867 1 0.42 1350
   867    868 1 0.312 2500
   867    869 1 0.47 5000
   869    870 1 0.47 3800
   870    871 1 0.47 3800
   871    872 1 0.47 3800
   868    873 1 0.47 3600
   873    874 1 0.47 3800
   874    875 1 0.47 3800
   875    876 1 0.47 3800
   877    878 1 0.4 7000
   878    879 1 0.42 1350
   879    880 1 0.312 2500
   879    881 1 0.47 5000
   881    882 1 0.47 3800
   882    883 1 0.47 3800
   883    884 1 0.47 3800
   880    885 1 0.47 3600
   885    886 1 0.47 3800
   886    887 1 0.47 3800
   887    888 1 0.47 3800
   889    890 1 0.4 7000
   890    891 1 0.42 1350
   891    892 1 0.312 2500
   891    893 1 0.47 5000
   893    894 1 0.47 3800
   894    895 1 0.47 3800
   895    896 1 0.47 3800
   892    897 1 0.47 3600
   897    898 1 0.47 3800
   898    899 1 0.47 3800
   899    900 1 0.47 3800
   901    902 1 0.4 7000
   902    903 1 0.42 1350
   903    904 1 0.312 2500
   903    905 1 0.47 5000
   905    906 1 0.47 3800
   906    907 1 0.47 3800
   907    908 1 0.47 3800
   904    909 1 0.47 3600
   909    910 1 0.47 3800
   910    911 1 0.47 3800
   911    912 1 0.47 3800
   913    914 1 0.4 7000
   914    915 1 0.42 1350
   915    916 1 0.312 2500
   915    917 1 0.47 5000
   917    918 1 0.47 3800
   918    919 1 0.47 3800
   919    920 1 0.47 3800
   916    921 1 0.47 3600
   921    922 1 0.47 3800
   922    923 1 0.47 3800
   923    924 1 0.47 3800
   925    926 1 0.4 7000
   926    927 1 0.42 1350
   927    928 1 0.312 2500
   927    929 1 0.47 5000
   929    930 1 0.47 3800
   930    931 1 0.47 3800
   931    932 1 0.47 3800
   928    933 1 0.47 3600
   933    934 1 0.47 3800
   934    935 1 0.47 3800
   935    936 1 0.47 3800
   937    938 1 0.4 7000
   938    939 1 0.42 1350
   939    940 1 0.312 2500
   939    941 1 0.47 5000
   941    942 1 0.47 3800
   942    943 1 0.47 3800
   943    944 1 0.47 3800
   940    945 1 0.47 3600
   945    946 1 0.47 3800
   946    947 1 0.47 3800
   947    948 1 0.47 3800
   949    950 1 0.4 7000
   950    951 1 0.42 1350
   951    952 1 0.312 2500
   951    953 1 0.47 5000
   953    954 1 0.47 3800
   954    955 1 0.47 3800
   955    956 1 0.47 3800
   952    957 1 0.47 3600
   957    958 1 0.47 3800
   958    959 1 0.47 3800
   959    960 1 0.47 3800
   961    962 1 0.4 7000
   962    963 1 0.42 1350
   963    964 1 0.312 2500
   963    965 1 0.47 5000
   965    966 1 0.47 3800
   966    967 1 0.47 3800
   967    968 1 0.47 3800
   964    969 1 0.47 3600
   969    970 1 0.47 3800
   970    971 1 0.47 3800
   971    972 1 0.47 3800
   973    974 1 0.4 7000
   974    975 1 0.42 1350
   975    976 1 0.312 2500
   975    977 1 0.47 5000
   977    978 1 0.47 3800
   978    979 1 0.47 3800
   979    980 1 0.47 3800
   976    981 1 0.47 3600
   981    982 1 0.47 3800
   982    983 1 0.47 3800
   983    984 1 0.47 3800
   985    986 1 0.4 7000
   986    987 1 0.42 1350
   987    988 1 0.312 2500
   987    989 1 0.47 5000
   989    990 1 0.47 3800
   990    991 1 0.47 3800
   991    992 1 0.47 3800
   988    993 1 0.47 3600
   993    994 1 0.47 3800
   994    995 1 0.47 3800
   995    996 1 0.47 3800
   997    998 1 0.4 7000
   998    999 1 0.42 1350
   999   1000 1 0.312 2500
   999   1001 1 0.47 5000
  1001   1002 1 0.47 3800
  1002   1003 1 0.47 3800
  1003   1004 1 0.47 3800
  1000   1005 1 0.47 3600
  1005   1006 1 0.47 3800
  1006   1007 1 0.47 3800
  1007   1008 1 0.47 3800
  1009   1010 1 0.4 7000
  1010   1011 1 0.42 1350
  1011   1012 1 0.312 2500
  1011   1013 1 0.47 5000
  1013   1014 1 0.47 3800
  1014   1015 1 0.47 3800
  1015   1016 1 0.47 3800
  1012   1017 1 0.47 3600
  1017   1018 1 0.47 3800
  1018   1019 1 0.47 3800
  1019   1020 1 0.47 3800
  1021   1022 1 0.4 7000
  1022   1023 1 0.42 1350
  1023   1024 1 0.312 2500
  1023   1025 1 0.47 5000
  1025   1026 1 0.47 3800
  1026   1027 1 0.47 3800
  1027   1028 1 0.47 3800
  1024   1029 1 0.47 3600
  1029   1030 1 0.47 3800
  1030   1031 1 0.47 3800
  1031   1032 1 0.47 3800
  1033   1034 1 0.4 7000
  1034   1035 1 0.42 1350
  1035   1036 1 0.312 2500
  1035   1037 1 0.47 5000
  1037   1038 1 0.47 3800
  1038   1039 1 0.47 3800
  1039   1040 1 0.47 3800
  1036   1041 1 0.47 3600
  1041   1042 1 0.47 3800
  1042   1043 1 0.47 3800
  1043   1044 1 0.47 3800
  1045   1046 1 0.4 7000
  1046   1047 1 0.42 1350
  1047   1048 1 0.312 2500
  1047   1049 1 0.47 5000
  1049   1050 1 0.47 3800
  1050   1051 1 0.47 3800
  1051   1052 1 0.47 3800
  1048   1053 1 0.47 3600
  1053   1054 1 0.47 3800
  1054   1055 1 0.47 3800
  1055   1056 1 0.47 3800
  1057   1058 1 0.4 7000
  1058   1059 1 0.42 1350
  1059   1060 1 0.312 2500
  1059   1061 1 0.47 5000
  1061   1062 1 0.47 3800
  1062   1063 1 0.47 3800
  1063   1064 1 0.47 3800
  1060   1065 1 0.47 3600
  1065   1066 1 0.47 3800
  1066   1067 1 0.47 3800
  1067   1068 1 0.47 3800
  1069   1070 1 0.4 7000
  1070   1071 1 0.42 1350
  1071   1072 1 0.312 2500
  1071   1073 1 0.47 5000
  1073   1074 1 0.47 3800
  1074   1075 1 0.47 3800
  1075   1076 1 0.47 3800
  1072   1077 1 0.47 3600
  1077   1078 1 0.47 3800
  1078   1079 1 0.47 3800
  1079   1080 1 0.47 3800
  1081   1082 1 0.4 7000
  1082   1083 1 0.42 1350
  1083   1084 1 0.312 2500
  1083   1085 1 0.47 5000
  1085   1086 1 0.47 3800
  1086   1087 1 0.47 3800
  1087   1088 1 0.47 3800
  1084   1089 1 0.47 3600
  1089   1090 1 0.47 3800
  1090   1091 1 0.47 3800
  1091   1092 1 0.47 3800
  1093   1094 1 0.4 7000
  1094   1095 1 0.42 1350
  1095   1096 1 0.312 2500
  1095   1097 1 0.47 5000
  1097   1098 1 0.47 3800
  1098   1099 1 0.47 3800
  1099   1100 1 0.47 3800
  1096   1101 1 0.47 3600
  1101   1102 1 0.47 3800
  1102   1103 1 0.47 3800
  1103   1104 1 0.47 3800
  1105   1106 1 0.4 7000
  1106   1107 1 0.42 1350
  1107   1108 1 0.312 2500
  1107   1109 1 0.47 5000
  1109   1110 1 0.47 3800
  1110   1111 1 0.47 3800
  1111   1112 1 0.47 3800
  1108   1113 1 0.47 3600
  1113   1114 1 0.47 3800
  1114   1115 1 0.47 3800
  1115   1116 1 0.47 3800
  1117   1118 1 0.4 7000
  1118   1119 1 0.42 1350
  1119   1120 1 0.312 2500
  1119   1121 1 0.47 5000
  1121   1122 1 0.47 3800
  1122   1123 1 0.47 3800
  1123   1124 1 0.47 3800
  1120   1125 1 0.47 3600
  1125   1126 1 0.47 3800
  1126   1127 1 0.47 3800
  1127   1128 1 0.47 3800
  1129   1130 1 0.4 7000
  1130   1131 1 0.42 1350
  1131   1132 1 0.312 2500
  1131   1133 1 0.47 5000
  1133   1134 1 0.47 3800
  1134   1135 1 0.47 3800
  1135   1136 1 0.47 3800
  1132   1137 1 0.47 3600
  1137   1138 1 0.47 3800
  1138   1139 1 0.47 3800
  1139   1140 1 0.47 3800
  1141   1142 1 0.4 7000
  1142   1143 1 0.42 1350
  1143   1144 1 0.312 2500
  1143   1145 1 0.47 5000
  1145   1146 1 0.47 3800
  1146   1147 1 0.47 3800
  1147   1148 1 0.47 3800
  1144   1149 1 0.47 3600
  1149   1150 1 0.47 3800
  1150   1151 1 0.47 3800
  1151   1152 1 0.47 3800
  1153   1154 1 0.4 7000
  1154   1155 1 0.42 1350
  1155   1156 1 0.312 2500
  1155   1157 1 0.47 5000
  1157   1158 1 0.47 3800
  1158   1159 1 0.47 3800
  1159   1160 1 0.47 3800
  1156   1161 1 0.47 3600
  1161   1162 1 0.47 3800
  1162   1163 1 0.47 3800
  1163   1164 1 0.47 3800
  1165   1166 1 0.4 7000
  1166   1167 1 0.42 1350
  1167   1168 1 0.312 2500
  1167   1169 1 0.47 5000
  1169   1170 1 0.47 3800
  1170   1171 1 0.47 3800
  1171   1172 1 0.47 3800
  1168   1173 1 0.47 3600
  1173   1174 1 0.47 3800
  1174   1175 1 0.47 3800
  1175   1176 1 0.47 3800
  1177   1178 1 0.4 7000
  1178   1179 1 0.42 1350
  1179   1180 1 0.312 2500
  1179   1181 1 0.47 5000
  1181   1182 1 0.47 3800
  1182   1183 1 0.47 3800
  1183   1184 1 0.47 3800
  1180   1185 1 0.47 3600
  1185   1186 1 0.47 3800
  1186   1187 1 0.47 3800
  1187   1188 1 0.47 3800
  1189   1190 1 0.4 7000
  1190   1191 1 0.42 1350
  1191   1192 1 0.312 2500
  1191   1193 1 0.47 5000
  1193   1194 1 0.47 3800
  1194   1195 1 0.47 3800
  1195   1196 1 0.47 3800
  1192   1197 1 0.47 3600
  1197   1198 1 0.47 3800
  1198   1199 1 0.47 3800
  1199   1200 1 0.47 3800
  1201   1202 1 0.4 7000
  1202   1203 1 0.42 1350
  1203   1204 1 0.312 2500
  1203   1205 1 0.47 5000
  1205   1206 1 0.47 3800
  1206   1207 1 0.47 3800
  1207   1208 1 0.47 3800
  1204   1209 1 0.47 3600
  1209   1210 1 0.47 3800
  1210   1211 1 0.47 3800
  1211   1212 1 0.47 3800
  1213   1214 1 0.4 7000
  1214   1215 1 0.42 1350
  1215   1216 1 0.312 2500
  1215   1217 1 0.47 5000
  1217   1218 1 0.47 3800
  1218   1219 1 0.47 3800
  1219   1220 1 0.47 3800
  1216   1221 1 0.47 3600
  1221   1222 1 0.47 3800
  1222   1223 1 0.47 3800
  1223   1224 1 0.47 3800
  1225   1226 1 0.4 7000
  1226   1227 1 0.42 1350
  1227   1228 1 0.312 2500
  1227   1229 1 0.47 5000
  1229   1230 1 0.47 3800
  1230   1231 1 0.47 3800
  1231   1232 1 0.47 3800
  1228   1233 1 0.47 3600
  1233   1234 1 0.47 3800
  1234   1235 1 0.47 3800
  1235   1236 1 0.47 3800
  1237   1238 1 0.4 7000
  1238   1239 1 0.42 1350
  1239   1240 1 0.312 2500
  1239   1241 1 0.47 5000
  1241   1242 1 0.47 3800
  1242   1243 1 0.47 3800
  1243   1244 1 0.47 3800
  1240   1245 1 0.47 3600
  1245   1246 1 0.47 3800
  1246   1247 1 0.47 3800
  1247   1248 1 0.47 3800
  1249   1250 1 0.4 7000
  1250   1251 1 0.42 1350
  1251   1252 1 0.312 2500
  1251   1253 1 0.47 5000
  1253   1254 1 0.47 3800
  1254   1255 1 0.47 3800
  1255   1256 1 0.47 3800
  1252   1257 1 0.47 3600
  1257   1258 1 0.47 3800
  1258   1259 1 0.47 3800
  1259   1260 1 0.47 3800
  1261   1262 1 0.4 7000
  1262   1263 1 0.42 1350
  1263   1264 1 0.312 2500
  1263   1265 1 0.47 5000
  1265   1266 1 0.47 3800
  1266   1267 1 0.47 3800
  1267   1268 1 0.47 3800
  1264   1269 1 0.47 3600
  1269   1270 1 0.47 3800
  1270   1271 1 0.47 3800
  1271   1272 1 0.47 3800
  1273   1274 1 0.4 7000
  1274   1275 1 0.42 1350
  1275   1276 1 0.312 2500
  1275   1277 1 0.47 5000
  1277   1278 1 0.47 3800
  1278   1279 1 0.47 3800
  1279   1280 1 0.47 3800
  1276   1281 1 0.47 3600
  1281   1282 1 0.47 3800
  1282   1283 1 0.47 3800
  1283   1284 1 0.47 3800
  1285   1286 1 0.4 7000
  1286   1287 1 0.42 1350
  1287   1288 1 0.312 2500
  1287   1289 1 0.47 5000
  1289   1290 1 0.47 3800
  1290   1291 1 0.47 3800
  1291   1292 1 0.47 3800
  1288   1293 1 0.47 3600
  1293   1294 1 0.47 3800
  1294   1295 1 0.47 3800
  1295   1296 1 0.47 3800
  1297   1298 1 0.4 7000
  1298   1299 1 0.42 1350
  1299   1300 1 0.312 2500
  1299   1301 1 0.47 5000
  1301   1302 1 0.47 3800
  1302   1303 1 0.47 3800
  1303   1304 1 0.47 3800
  1300   1305 1 0.47 3600
  1305   1306 1 0.47 3800
  1306   1307 1 0.47 3800
  1307   1308 1 0.47 3800
  1309   1310 1 0.4 7000
  1310   1311 1 0.42 1350
  1311   1312 1 0.312 2500
  1311   1313 1 0.47 5000
  1313   1314 1 0.47 3800
  1314   1315 1 0.47 3800
  1315   1316 1 0.47 3800
  1312   1317 1 0.47 3600
  1317   1318 1 0.47 3800
  1318   1319 1 0.47 3800
  1319   1320 1 0.47 3800
  1321   1322 1 0.4 7000
  1322   1323 1 0.42 1350
  1323   1324 1 0.312 2500
  1323   1325 1 0.47 5000
  1325   1326 1 0.47 3800
  1326   1327 1 0.47 3800
  1327   1328 1 0.47 3800
  1324   1329 1 0.47 3600
  1329   1330 1 0.47 3800
  1330   1331 1 0.47 3800
  1331   1332 1 0.47 3800
  1333   1334 1 0.4 7000
  1334   1335 1 0.42 1350
  1335   1336 1 0.312 2500
  1335   1337 1 0.47 5000
  1337   1338 1 0.47 3800
  1338   1339 1 0.47 3800
  1339   1340 1 0.47 3800
  1336   1341 1 0.47 3600
  1341   1342 1 0.47 3800
  1342   1343 1 0.47 3800
  1343   1344 1 0.47 3800
  1345   1346 1 0.4 7000
  1346   1347 1 0.42 1350
  1347   1348 1 0.312 2500
  1347   1349 1 0.47 5000
  1349   1350 1 0.47 3800
  1350   1351 1 0.47 3800
  1351   1352 1 0.47 3800
  1348   1353 1 0.47 3600
  1353   1354 1 0.47 3800
  1354   1355 1 0.47 3800
  1355   1356 1 0.47 3800
  1357   1358 1 0.4 7000
  1358   1359 1 0.42 1350
  1359   1360 1 0.312 2500
  1359   1361 1 0.47 5000
  1361   1362 1 0.47 3800
  1362   1363 1 0.47 3800
  1363   1364 1 0.47 3800
  1360   1365 1 0.47 3600
  1365   1366 1 0.47 3800
  1366   1367 1 0.47 3800
  1367   1368 1 0.47 3800
  1369   1370 1 0.4 7000
  1370   1371 1 0.42 1350
  1371   1372 1 0.312 2500
  1371   1373 1 0.47 5000
  1373   1374 1 0.47 3800
  1374   1375 1 0.47 3800
  1375   1376 1 0.47 3800
  1372   1377 1 0.47 3600
  1377   1378 1 0.47 3800
  1378   1379 1 0.47 3800
  1379   1380 1 0.47 3800
  1381   1382 1 0.4 7000
  1382   1383 1 0.42 1350
  1383   1384 1 0.312 2500
  1383   1385 1 0.47 5000
  1385   1386 1 0.47 3800
  1386   1387 1 0.47 3800
  1387   1388 1 0.47 3800
  1384   1389 1 0.47 3600
  1389   1390 1 0.47 3800
  1390   1391 1 0.47 3800
  1391   1392 1 0.47 3800
  1393   1394 1 0.4 7000
  1394   1395 1 0.42 1350
  1395   1396 1 0.312 2500
  1395   1397 1 0.47 5000
  1397   1398 1 0.47 3800
  1398   1399 1 0.47 3800
  1399   1400 1 0.47 3800
  1396   1401 1 0.47 3600
  1401   1402 1 0.47 3800
  1402   1403 1 0.47 3800
  1403   1404 1 0.47 3800
  1405   1406 1 0.4 7000
  1406   1407 1 0.42 1350
  1407   1408 1 0.312 2500
  1407   1409 1 0.47 5000
  1409   1410 1 0.47 3800
  1410   1411 1 0.47 3800
  1411   1412 1 0.47 3800
  1408   1413 1 0.47 3600
  1413   1414 1 0.47 3800
  1414   1415 1 0.47 3800
  1415   1416 1 0.47 3800
  1417   1418 1 0.4 7000
  1418   1419 1 0.42 1350
  1419   1420 1 0.312 2500
  1419   1421 1 0.47 5000
  1421   1422 1 0.47 3800
  1422   1423 1 0.47 3800
  1423   1424 1 0.47 3800
  1420   1425 1 0.47 3600
  1425   1426 1 0.47 3800
  1426   1427 1 0.47 3800
  1427   1428 1 0.47 3800
  1429   1430 1 0.4 7000
  1430   1431 1 0.42 1350
  1431   1432 1 0.312 2500
  1431   1433 1 0.47 5000
  1433   1434 1 0.47 3800
  1434   1435 1 0.47 3800
  1435   1436 1 0.47 3800
  1432   1437 1 0.47 3600
  1437   1438 1 0.47 3800
  1438   1439 1 0.47 3800
  1439   1440 1 0.47 3800
  1441   1442 1 0.4 7000
  1442   1443 1 0.42 1350
  1443   1444 1 0.312 2500
  1443   1445 1 0.47 5000
  1445   1446 1 0.47 3800
  1446   1447 1 0.47 3800
  1447   1448 1 0.47 3800
  1444   1449 1 0.47 3600
  1449   1450 1 0.47 3800
  1450   1451 1 0.47 3800
  1451   1452 1 0.47 3800
  1453   1454 1 0.4 7000
  1454   1455 1 0.42 1350
  1455   1456 1 0.312 2500
  1455   1457 1 0.47 5000
  1457   1458 1 0.47 3800
  1458   1459 1 0.47 3800
  1459   1460 1 0.47 3800
  1456   1461 1 0.47 3600
  1461   1462 1 0.47 3800
  1462   1463 1 0.47 3800
  1463   1464 1 0.47 3800
  1465   1466 1 0.4 7000
  1466   1467 1 0.42 1350
  1467   1468 1 0.312 2500
  1467   1469 1 0.47 5000
  1469   1470 1 0.47 3800
  1470   1471 1 0.47 3800
  1471   1472 1 0.47 3800
  1468   1473 1 0.47 3600
  1473   1474 1 0.47 3800
  1474   1475 1 0.47 3800
  1475   1476 1 0.47 3800
  1477   1478 1 0.4 7000
  1478   1479 1 0.42 1350
  1479   1480 1 0.312 2500
  1479   1481 1 0.47 5000
  1481   1482 1 0.47 3800
  1482   1483 1 0.47 3800
  1483   1484 1 0.47 3800
  1480   1485 1 0.47 3600
  1485   1486 1 0.47 3800
  1486   1487 1 0.47 3800
  1487   1488 1 0.47 3800
  1489   1490 1 0.4 7000
  1490   1491 1 0.42 1350
  1491   1492 1 0.312 2500
  1491   1493 1 0.47 5000
  1493   1494 1 0.47 3800
  1494   1495 1 0.47 3800
  1495   1496 1 0.47 3800
  1492   1497 1 0.47 3600
  1497   1498 1 0.47 3800
  1498   1499 1 0.47 3800
  1499   1500 1 0.47 3800
  1501   1502 1 0.4 7000
  1502   1503 1 0.42 1350
  1503   1504 1 0.312 2500
  1503   1505 1 0.47 5000
  1505   1506 1 0.47 3800
  1506   1507 1 0.47 3800
  1507   1508 1 0.47 3800
  1504   1509 1 0.47 3600
  1509   1510 1 0.47 3800
  1510   1511 1 0.47 3800
  1511   1512 1 0.47 3800
  1513   1514 1 0.4 7000
  1514   1515 1 0.42 1350
  1515   1516 1 0.312 2500
  1515   1517 1 0.47 5000
  1517   1518 1 0.47 3800
  1518   1519 1 0.47 3800
  1519   1520 1 0.47 3800
  1516   1521 1 0.47 3600
  1521   1522 1 0.47 3800
  1522   1523 1 0.47 3800
  1523   1524 1 0.47 3800
  1525   1526 1 0.4 7000
  1526   1527 1 0.42 1350
  1527   1528 1 0.312 2500
  1527   1529 1 0.47 5000
  1529   1530 1 0.47 3800
  1530   1531 1 0.47 3800
  1531   1532 1 0.47 3800
  1528   1533 1 0.47 3600
  1533   1534 1 0.47 3800
  1534   1535 1 0.47 3800
  1535   1536 1 0.47 3800

[ angles ]
     2      3      4 2 108 21.5
     2      3      5 2 139.1 31.2
     3      5      6 2 180 35
     5      6      7 2 120 35
     6      7      8 2 180 35
     4      9     10 2 180 35
     9     10     11 2 180 35
    10     11     12 2 180 35
    14     15     16 2 108 21.5
    14     15     17 2 139.1 31.2
    15     17     18 2 180 35
    17     18     19 2 120 35
    18     19     20 2 180 35
    16     21     22 2 180 35
    21     22     23 2 180 35
    22     23     24 2 180 35
    26     27     28 2 108 21.5
    26     27     29 2 139.1 31.2
    27     29     30 2 180 35
    29     30     31 2 120 35
    30     31     32 2 180 35
    28     33     34 2 180 35
    33     34     35 2 180 35
    34     35     36 2 180 35
    38     39     40 2 108 21.5
    38     39     41 2 139.1 31.2
    39     41     42 2 180 35
    41     42     43 2 120 35
    42     43     44 2 180 35
    40     45     46 2 180 35
    45     46     47 2 180 35
    46     47     48 2 180 35
    50     51     52 2 108 21.5
    50     51     53 2 139.1 31.2
    51     53     54 2 180 35
    53     54     55 2 120 35
    54     55     56 2 180 35
    52     57     58 2 180 35
    57     58     59 2 180 35
    58     59     60 2 180 35
    62     63     64 2 108 21.5
    62     63     65 2 139.1 31.2
    63     65     66 2 180 35
    65     66     67 2 120 35
    66     67     68 2 180 35
    64     69     70 2 180 35
    69     70     71 2 180 35
    70     71     72 2 180 35
    74     75     76 2 108 21.5
    74     75     77 2 139.1 31.2
    75     77     78 2 180 35
    77     78     79 2 120 35
    78     79     80 2 180 35
    76     81     82 2 180 35
    81     82     83 2 180 35
    82     83     84 2 180 35
    86     87     88 2 108 21.5
    86     87     89 2 139.1 31.2
    87     89     90 2 180 35
    89     90     91 2 120 35
    90     91     92 2 180 35
    88     93     94 2 180 35
    93     94     95 2 180 35
    94     95     96 2 180 35
    98     99    100 2 108 21.5
    98     99    101 2 139.1 31.2
    99    101    102 2 180 35
   101    102    103 2 120 35
   102    103    104 2 180 35
   100    105    106 2 180 35
   105    106    107 2 180 35
   106    107    108 2 180 35
   110    111    112 2 108 21.5
   110    111    113 2 139.1 31.2
   111    113    114 2 180 35
   113    114    115 2 120 35
   114    115    116 2 180 35
   112    117    118 2 180 35
   117    118    119 2 180 35
   118    119    120 2 180 35
   122    123    124 2 108 21.5
   122    123    125 2 139.1 31.2
   123    125    126 2 180 35
   125    126    127 2 120 35
   126    127    128 2 180 35
   124    129    130 2 180 35
   129    130    131 2 180 35
   130    131    132 2 180 35
   134    135    136 2 108 21.5
   134    135    137 2 139.1 31.2
   135    137    138 2 180 35
   137    138    139 2 120 35
   138    139    140 2 180 35
   136    141    142 2 180 35
   141    142    143 2 180 35
   142    143    144 2 180 35
   146    147    148 2 108 21.5
   146    147    149 2 139.1 31.2
   147    149    150 2 180 35
   149    150    151 2 120 35
   150    151    152 2 180 35
   148    153    154 2 180 35
   153    154    155 2 180 35
   154    155    156 2 180 35
   158    159    160 2 108 21.5
   158    159    161 2 139.1 31.2
   159    161    162 2 180 35
   161    162    163 2 120 35
   162    163    164 2 180 35
   160    165    166 2 180 35
   165    166    167 2 180 35
   166    167    168 2 180 35
   170    171    172 2 108 21.5
   170    171    173 2 139.1 31.2
   171    173    174 2 180 35
   173    174    175 2 120 35
   174    175    176 2 180 35
   172    177    178 2 180 35
   177    178    179 2 180 35
   178    179    180 2 180 35
   182    183    184 2 108 21.5
   182    183    185 2 139.1 31.2
   183    185    186 2 180 35
   185    186    187 2 120 35
   186    187    188 2 180 35
   184    189    190 2 180 35
   189    190    191 2 180 35
   190    191    192 2 180 35
   194    195    196 2 108 21.5
   194    195    197 2 139.1 31.2
   195    197    198 2 180 35
   197    198    199 2 120 35
   198    199    200 2 180 35
   196    201    202 2 180 35
   201    202    203 2 180 35
   202    203    204 2 180 35
   206    207    208 2 108 21.5
   206    207    209 2 139.1 31.2
   207    209    210 2 180 35
   209    210    211 2 120 35
   210    211    212 2 180 35
   208    213    214 2 180 35
   213    214    215 2 180 35
   214    215    216 2 180 35
   218    219    220 2 108 21.5
   218    219    221 2 139.1 31.2
   219    221    222 2 180 35
   221    222    223 2 120 35
   222    223    224 2 180 35
   220    225    226 2 180 35
   225    226    227 2 180 35
   226    227    228 2 180 35
   230    231    232 2 108 21.5
   230    231    233 2 139.1 31.2
   231    233    234 2 180 35
   233    234    235 2 120 35
   234    235    236 2 180 35
   232    237    238 2 180 35
   237    238    239 2 180 35
   238    239    240 2 180 35
   242    243    244 2 108 21.5
   242    243    245 2 139.1 31.2
   243    245    246 2 180 35
   245    246    247 2 120 35
   246    247    248 2 180 35
   244    249    250 2 180 35
   249    250    251 2 180 35
   250    251    252 2 180 35
   254    255    256 2 108 21.5
   254    255    257 2 139.1 31.2
   255    257    258 2 180 35
   257    258    259 2 120 35
   258    259    260 2 180 35
   256    261    262 2 180 35
   261    262    263 2 180 35
   262    263    264 2 180 35
   266    267    268 2 108 21.5
   266    267    269 2 139.1 31.2
   267    269    270 2 180 35
   269    270    271 2 120 35
   270    271    272 2 180 35
   268    273    274 2 180 35
   273    274    275 2 180 35
   274    275    276 2 180 35
   278    279    280 2 108 21.5
   278    279    281 2 139.1 31.2
   279    281    282 2 180 35
   281    282    283 2 120 35
   282    283    284 2 180 35
   280    285    286 2 180 35
   285    286    287 2 180 35
   286    287    288 2 180 35
   290    291    292 2 108 21.5
   290    291    293 2 139.1 31.2
   291    293    294 2 180 35
   293    294    295 2 120 35
   294    295    296 2 180 35
   292    297    298 2 180 35
   297    298    299 2 180 35
   298    299    300 2 180 35
   302    303    304 2 108 21.5
   302    303    305 2 139.1 31.2
   303    305    306 2 180 35
   305    306    307 2 120 35
   306    307    308 2 180 35
   304    309    310 2 180 35
   309    310    311 2 180 35
   310    311    312 2 180 35
   314    315    316 2 108 21.5
   314    315    317 2 139.1 31.2
   315    317    318 2 180 35
   317    318    319 2 120 35
   318    319    320 2 180 35
   316    321    322 2 180 35
   321    322    323 2 180 35
   322    323    324 2 180 35
   326    327    328 2 108 21.5
   326    327    329 2 139.1 31.2
   327    329    330 2 180 35
   329    330    331 2 120 35
   330    331    332 2 180 35
   328    333    334 2 180 35
   333    334    335 2 180 35
   334    335    336 2 180 35
   338    339    340 2 108 21.5
   338    339    341 2 139.1 31.2
   339    341    342 2 180 35
   341    342    343 2 120 35
   342    343    344 2 180 35
   340    345    346 2 180 35
   345    346    347 2 180 35
   346    347    348 2 180 35
   350    351    352 2 108 21.5
   350    351    353 2 139.1 31.2
   351    353    354 2 180 35
   353    354    355 2 120 35
   354    355    356 2 180 35
   352    357    358 2 180 35
   357    358    359 2 180 35
   358    359    360 2 180 35
   362    363    364 2 108 21.5
   362    363    365 2 139.1 31.2
   363    365    366 2 180 35
   365    366    367 2 120 35
   366    367    368 2 180 35
   364    369    370 2 180 35
   369    370    371 2 180 35
   370    371    372 2 180 35
   374    375    376 2 108 21.5
   374    375    377 2 139.1 31.2
   375    377    378 2 180 35
   377    378    379 2 120 35
   378    379    380 2 180 35
   376    381    382 2 180 35
   381    382    383 2 180 35
   382    383    384 2 180 35
   386    387    388 2 108 21.5
   386    387    389 2 139.1 31.2
   387    389    390 2 180 35
   389    390    391 2 120 35
   390    391    392 2 180 35
   388    393    394 2 180 35
   393    394    395 2 180 35
   394    395    396 2 180 35
   398    399    400 2 108 21.5
   398    399    401 2 139.1 31.2
   399    401    402 2 180 35
   401    402    403 2 120 35
   402    403    404 2 180 35
   400    405    406 2 180 35
   405    406    407 2 180 35
   406    407    408 2 180 35
   410    411    412 2 108 21.5
   410    411    413 2 139.1 31.2
   411    413    414 2 180 35
   413    414    415 2 120 35
   414    415    416 2 180 35
   412    417    418 2 180 35
   417    418    419 2 180 35
   418    419    420 2 180 35
   422    423    424 2 108 21.5
   422    423    425 2 139.1 31.2
   423    425    426 2 180 35
   425    426    427 2 120 35
   426    427    428 2 180 35
   424    429    430 2 180 35
   429    430    431 2 180 35
   430    431    432 2 180 35
   434    435    436 2 108 21.5
   434    435    437 2 139.1 31.2
   435    437    438 2 180 35
   437    438    439 2 120 35
   438    439    440 2 180 35
   436    441    442 2 180 35
   441    442    443 2 180 35
   442    443    444 2 180 35
   446    447    448 2 108 21.5
   446    447    449 2 139.1 31.2
   447    449    450 2 180 35
   449    450    451 2 120 35
   450    451    452 2 180 35
   448    453    454 2 180 35
   453    454    455 2 180 35
   454    455    456 2 180 35
   458    459    460 2 108 21.5
   458    459    461 2 139.1 31.2
   459    461    462 2 180 35
   461    462    463 2 120 35
   462    463    464 2 180 35
   460    465    466 2 180 35
   465    466    467 2 180 35
   466    467    468 2 180 35
   470    471    472 2 108 21.5
   470    471    473 2 139.1 31.2
   471    473    474 2 180 35
   473    474    475 2 120 35
   474    475    476 2 180 35
   472    477    478 2 180 35
   477    478    479 2 180 35
   478    479    480 2 180 35
   482    483    484 2 108 21.5
   482    483    485 2 139.1 31.2
   483    485    486 2 180 35
   485    486    487 2 120 35
   486    487    488 2 180 35
   484    489    490 2 180 35
   489    490    491 2 180 35
   490    491    492 2 180 35
   494    495    496 2 108 21.5
   494    495    497 2 139.1 31.2
   495    497    498 2 180 35
   497    498    499 2 120 35
   498    499    500 2 180 35
   496    501    502 2 180 35
   501    502    503 2 180 35
   502    503    504 2 180 35
   506    507    508 2 108 21.5
   506    507    509 2 139.1 31.2
   507    509    510 2 180 35
   509    510    511 2 120 35
   510    511    512 2 180 35
   508    513    514 2 180 35
   513    514    515 2 180 35
   514    515    516 2 180 35
   518    519    520 2 108 21.5
   518    519    521 2 139.1 31.2
   519    521    522 2 180 35
   521    522    523 2 120 35
   522    523    524 2 180 35
   520    525    526 2 180 35
   525    526    527 2 180 35
   526    527    528 2 180 35
   530    531    532 2 108 21.5
   530    531    533 2 139.1 31.2
   531    533    534 2 180 35
   533    534    535 2 120 35
   534    535    536 2 180 35
   532    537    538 2 180 35
   537    538    539 2 180 35
   538    539    540 2 180 35
   542    543    544 2 108 21.5
   542    543    545 2 139.1 31.2
   543    545    546 2 180 35
   545    546    547 2 120 35
   546    547    548 2 180 35
   544    549    550 2 180 35
   549    550    551 2 180 35
   550    551    552 2 180 35
   554    555    556 2 108 21.5
   554    555    557 2 139.1 31.2
   555    557    558 2 180 35
   557    558    559 2 120 35
   558    559    560 2 180 35
   556    561    562 2 180 35
   561    562    563 2 180 35
   562    563    564 2 180 35
   566    567    568 2 108 21.5
   566    567    569 2 139.1 31.2
   567    569    570 2 180 35
   569    570    571 2 120 35
   570    571    572 2 180 35
   568    573    574 2 180 35
   573    574    575 2 180 35
   574    575    576 2 180 35
   578    579    580 2 108 21.5
   578    579    581 2 139.1 31.2
   579    581    582 2 180 35
   581    582    583 2 120 35
   582    583    584 2 180 35
   580    585    586 2 180 35
   585    586    587 2 180 35
   586    587    588 2 180 35
   590    591    592 2 108 21.5
   590    591    593 2 139.1 31.2
   591    593    594 2 180 35
   593    594    595 2 120 35
   594    595    596 2 180 35
   592    597    598 2 180 35
   597    598    599 2 180 35
   598    599    600 2 180 35
   602    603    604 2 108 21.5
   602    603    605 2 139.1 31.2
   603    605    606 2 180 35
   605    606    607 2 120 35
   606    607    608 2 180 35
   604    609    610 2 180 35
   609    610    611 2 180 35
   610    611    612 2 180 35
   614    615    616 2 108 21.5
   614    615    617 2 139.1 31.2
   615    617    618 2 180 35
   617    618    619 2 120 35
   618    619    620 2 180 35
   616    621    622 2 180 35
   621    622    623 2 180 35
   622    623    624 2 180 35
   626    627    628 2 108 21.5
   626    627    629 2 139.1 31.2
   627    629    630 2 180 35
   629    630    631 2 120 35
   630    631    632 2 180 35
   628    633    634 2 180 35
   633    634    635 2 180 35
   634    635    636 2 180 35
   638    639    640 2 108 21.5
   638    639    641 2 139.1 31.2
   639    641    642 2 180 35
   641    642    643 2 120 35
   642    643    644 2 180 35
   640    645    646 2 180 35
   645    646    647 2 180 35
   646    647    648 2 180 35
   650    651    652 2 108 21.5
   650    651    653 2 139.1 31.2
   651    653    654 2 180 35
   653    654    655 2 120 35
   654    655    656 2 180 35
   652    657    658 2 180 35
   657    658    659 2 180 35
   658    659    660 2 180 35
   662    663    664 2 108 21.5
   662    663    665 2 139.1 31.2
   663    665    666 2 180 35
   665    666    667 2 120 35
   666    667    668 2 180 35
   664    669    670 2 180 35
   669    670    671 2 180 35
   670    671    672 2 180 35
   674    675    676 2 108 21.5
   674    675    677 2 139.1 31.2
   675    677    678 2 180 35
   677    678    679 2 120 35
   678    679    680 2 180 35
   676    681    682 2 180 35
   681    682    683 2 180 35
   682    683    684 2 180 35
   686    687    688 2 108 21.5
   686    687    689 2 139.1 31.2
   687    689    690 2 180 35
   689    690    691 2 120 35
   690    691    692 2 180 35
   688    693    694 2 180 35
   693    694    695 2 180 35
   694    695    696 2 180 35
   698    699    700 2 108 21.5
   698    699    701 2 139.1 31.2
   699    701    702 2 180 35
   701    702    703 2 120 35
   702    703    704 2 180 35
   700    705    706 2 180 35
   705    706    707 2 180 35
   706    707    708 2 180 35
   710    711    712 2 108 21.5
   710    711    713 2 139.1 31.2
   711    713    714 2 180 35
   713    714    715 2 120 35
   714    715    716 2 180 35
   712    717    718 2 180 35
   717    718    719 2 180 35
   718    719    720 2 180 35
   722    723    724 2 108 21.5
   722    723    725 2 139.1 31.2
   723    725    726 2 180 35
   725    726    727 2 120 35
   726    727    728 2 180 35
   724    729    730 2 180 35
   729    730    731 2 180 35
   730    731    732 2 180 35
   734    735    736 2 108 21.5
   734    735    737 2 139.1 31.2
   735    737    738 2 180 35
   737    738    739 2 120 35
   738    739    740 2 180 35
   736    741    742 2 180 35
   741    742    743 2 180 35
   742    743    744 2 180 35
   746    747    748 2 108 21.5
   746    747    749 2 139.1 31.2
   747    749    750 2 180 35
   749    750    751 2 120 35
   750    751    752 2 180 35
   748    753    754 2 180 35
   753    754    755 2 180 35
   754    755    756 2 180 35
   758    759    760 2 108 21.5
   758    759    761 2 139.1 31.2
   759    761    762 2 180 35
   761    762    763 2 120 35
   762    763    764 2 180 35
   760    765    766 2 180 35
   765    766    767 2 180 35
   766    767    768 2 180 35
   770    771    772 2 108 21.5
   770    771    773 2 139.1 31.2
   771    773    774 2 180 35
   773    774    775 2 120 35
   774    775    776 2 180 35
   772    777    778 2 180 35
   777    778    779 2 180 35
   778    779    780 2 180 35
   782    783    784 2 108 21.5
   782    783    785 2 139.1 31.2
   783    785    786 2 180 35
   785    786    787 2 120 35
   786    787    788 2 180 35
   784    789    790 2 180 35
   789    790    791 2 180 35
   790    791    792 2 180 35
   794    795    796 2 108 21.5
   794    795    797 2 139.1 31.2
   795    797    798 2 180 35
   797    798    799 2 120 35
   798    799    800 2 180 35
   796    801    802 2 180 35
   801    802    803 2 180 35
   802    803    804 2 180 35
   806    807    808 2 108 21.5
   806    807    809 2 139.1 31.2
   807    809    810 2 180 35
   809    810    811 2 120 35
   810    811    812 2 180 35
   808    813    814 2 180 35
   813    814    815 2 180 35
   814    815    816 2 180 35
   818    819    820 2 108 21.5
   818    819    821 2 139.1 31.2
   819    821    822 2 180 35
   821    822    823 2 120 35
   822    823    824 2 180 35
   820    825    826 2 180 35
   825    826    827 2 180 35
   826    827    828 2 180 35
   830    831    832 2 108 21.5
   830    831    833 2 139.1 31.2
   831    833    834 2 180 35
   833    834    835 2 120 35
   834    835    836 2 180 35
   832    837    838 2 180 35
   837    838    839 2 180 35
   838    839    840 2 180 35
   842    843    844 2 108 21.5
   842    843    845 2 139.1 31.2
   843    845    846 2 180 35
   845    846    847 2 120 35
   846    847    848 2 180 35
   844    849    850 2 180 35
   849    850    851 2 180 35
   850    851    852 2 180 35
   854    855    856 2 108 21.5
   854    855    857 2 139.1 31.2
   855    857    858 2 180 35
   857    858    859 2 120 35
   858    859    860 2 180 35
   856    861    862 2 180 35
   861    862    863 2 180 35
   862    863    864 2 180 35
   866    867    868 2 108 21.5
   866    867    869 2 139.1 31.2
   867    869    870 2 180 35
   869    870    871 2 120 35
   870    871    872 2 180 35
   868    873    874 2 180 35
   873    874    875 2 180 35
   874    875    876 2 180 35
   878    879    880 2 108 21.5
   878    879    881 2 139.1 31.2
   879    881    882 2 180 35
   881    882    883 2 120 35
   882    883    884 2 180 35
   880    885    886 2 180 35
   885    886    887 2 180 35
   886    887    888 2 180 35
   890    891    892 2 108 21.5
   890    891    893 2 139.1 31.2
   891    893    894 2 180 35
   893    894    895 2 120 35
   894    895    896 2 180 35
   892    897    898 2 180 35
   897    898    899 2 180 35
   898    899    900 2 180 35
   902    903    904 2 108 21.5
   902    903    905 2 139.1 31.2
   903    905    906 2 180 35
   905    906    907 2 120 35
   906    907    908 2 180 35
   904    909    910 2 180 35
   909    910    911 2 180 35
   910    911    912 2 180 35
   914    915    916 2 108 21.5
   914    915    917 2 139.1 31.2
   915    917    918 2 180 35
   917    918    919 2 120 35
   918    919    920 2 180 35
   916    921    922 2 180 35
   921    922    923 2 180 35
   922    923    924 2 180 35
   926    927    928 2 108 21.5
   926    927    929 2 139.1 31.2
   927    929    930 2 180 35
   929    930    931 2 120 35
   930    931    932 2 180 35
   928    933    934 2 180 35
   933    934    935 2 180 35
   934    935    936 2 180 35
   938    939    940 2 108 21.5
   938    939    941 2 139.1 31.2
   939    941    942 2 180 35
   941    942    943 2 120 35
   942    943    944 2 180 35
   940    945    946 2 180 35
   945    946    947 2 180 35
   946    947    948 2 180 35
   950    951    952 2 108 21.5
   950    951    953 2 139.1 31.2
   951    953    954 2 180 35
   953    954    955 2 120 35
   954    955    956 2 180 35
   952    957    958 2 180 35
   957    958    959 2 180 35
   958    959    960 2 180 35
   962    963    964 2 108 21.5
   962    963    965 2 139.1 31.2
   963    965    966 2 180 35
   965    966    967 2 120 35
   966    967    968 2 180 35
   964    969    970 2 180 35
   969    970    971 2 180 35
   970    971    972 2 180 35
   974    975    976 2 108 21.5
   974    975    977 2 139.1 31.2
   975    977    978 2 180 35
   977    978    979 2 120 35
   978    979    980 2 180 35
   976    981    982 2 180 35
   981    982    983 2 180 35
   982    983    984 2 180 35
   986    987    988 2 108 21.5
   986    987    989 2 139.1 31.2
   987    989    990 2 180 35
   989    990    991 2 120 35
   990    991    992 2 180 35
   988    993    994 2 180 35
   993    994    995 2 180 35
   994    995    996 2 180 35
   998    999   1000 2 108 21.5
   998    999   1001 2 139.1 31.2
   999   1001   1002 2 180 35
  1001   1002   1003 2 120 35
  1002   1003   1004 2 180 35
  1000   1005   1006 2 180 35
  1005   1006   1007 2 180 35
  1006   1007   1008 2 180 35
  1010   1011   1012 2 108 21.5
  1010   1011   1013 2 139.1 31.2
  1011   1013   1014 2 180 35
  1013   1014   1015 2 120 35
  1014   1015   1016 2 180 35
  1012   1017   1018 2 180 35
  1017   1018   1019 2 180 35
  1018   1019   1020 2 180 35
  1022   1023   1024 2 108 21.5
  1022   1023   1025 2 139.1 31.2
  1023   1025   1026 2 180 35
  1025   1026   1027 2 120 35
  1026   1027   1028 2 180 35
  1024   1029   1030 2 180 35
  1029   1030   1031 2 180 35
  1030   1031   1032 2 180 35
  1034   1035   1036 2 108 21.5
  1034   1035   1037 2 139.1 31.2
  1035   1037   1038 2 180 35
  1037   1038   1039 2 120 35
  1038   1039   1040 2 180 35
  1036   1041   1042 2 180 35
  1041   1042   1043 2 180 35
  1042   1043   1044 2 180 35
  1046   1047   1048 2 108 21.5
  1046   1047   1049 2 139.1 31.2
  1047   1049   1050 2 180 35
  1049   1050   1051 2 120 35
  1050   1051   1052 2 180 35
  1048   1053   1054 2 180 35
  1053   1054   1055 2 180 35
  1054   1055   1056 2 180 35
  1058   1059   1060 2 108 21.5
  1058   1059   1061 2 139.1 31.2
  1059   1061   1062 2 180 35
  1061   1062   1063 2 120 35
  1062   1063   1064 2 180 35
  1060   1065   1066 2 180 35
  1065   1066   1067 2 180 35
  1066   1067   1068 2 180 35
  1070   1071   1072 2 108 21.5
  1070   1071   1073 2 139.1 31.2
  1071   1073   1074 2 180 35
  1073   1074   1075 2 120 35
  1074   1075   1076 2 180 35
  1072   1077   1078 2 180 35
  1077   1078   1079 2 180 35
  1078   1079   1080 2 180 35
  1082   1083   1084 2 108 21.5
  1082   1083   1085 2 139.1 31.2
  1083   1085   1086 2 180 35
  1085   1086   1087 2 120 35
  1086   1087   1088 2 180 35
  1084   1089   1090 2 180 35
  1089   1090   1091 2 180 35
  1090   1091   1092 2 180 35
  1094   1095   1096 2 108 21.5
  1094   1095   1097 2 139.1 31.2
  1095   1097   1098 2 180 35
  1097   1098   1099 2 120 35
  1098   1099   1100 2 180 35
  1096   1101   1102 2 180 35
  1101   1102   1103 2 180 35
  1102   1103   1104 2 180 35
  1106   1107   1108 2 108 21.5
  1106   1107   1109 2 139.1 31.2
  1107   1109   1110 2 180 35
  1109   1110   1111 2 120 35
  1110   1111   1112 2 180 35
  1108   1113   1114 2 180 35
  1113   1114   1115 2 180 35
  1114   1115   1116 2 180 35
  1118   1119   1120 2 108 21.5
  1118   1119   1121 2 139.1 31.2
  1119   1121   1122 2 180 35
  1121   1122   1123 2 120 35
  1122   1123   1124 2 180 35
  1120   1125   1126 2 180 35
  1125   1126   1127 2 180 35
  1126   1127   1128 2 180 35
  1130   1131   1132 2 108 21.5
  1130   1131   1133 2 139.1 31.2
  1131   1133   1134 2 180 35
  1133   1134   1135 2 120 35
  1134   1135   1136 2 180 35
  1132   1137   1138 2 180 35
  1137   1138   1139 2 180 35
  1138   1139   1140 2 180 35
  1142   1143   1144 2 108 21.5
  1142   1143   1145 2 139.1 31.2
  1143   1145   1146 2 180 35
  1145   1146   1147 2 120 35
  1146   1147   1148 2 180 35
  1144   1149   1150 2 180 35
  1149   1150   1151 2 180 35
  1150   1151   1152 2 180 35
  1154   1155   1156 2 108 21.5
  1154   1155   1157 2 139.1 31.2
  1155   1157   1158 2 180 35
  1157   1158   1159 2 120 35
  1158   1159   1160 2 180 35
  1156   1161   1162 2 180 35
  1161   1162   1163 2 180 35
  1162   1163   1164 2 180 35
  1166   1167   1168 2 108 21.5
  1166   1167   1169 2 139.1 31.2
  1167   1169   1170 2 180 35
  1169   1170   1171 2 120 35
  1170   1171   1172 2 180 35
  1168   1173   1174 2 180 35
  1173   1174   1175 2 180 35
  1174   1175   1176 2 180 35
  1178   1179   1180 2 108 21.5
  1178   1179   1181 2 139.1 31.2
  1179   1181   1182 2 180 35
  1181   1182   1183 2 120 35
  1182   1183   1184 2 180 35
  1180   1185   1186 2 180 35
  1185   1186   1187 2 180 35
  1186   1187   1188 2 180 35
  1190   1191   1192 2 108 21.5
  1190   1191   1193 2 139.1 31.2
  1191   1193   1194 2 180 35
  1193   1194   1195 2 120 35
  1194   1195   1196 2 180 35
  1192   1197   1198 2 180 35
  1197   1198   1199 2 180 35
  1198   1199   1200 2 180 35
  1202   1203   1204 2 108 21.5
  1202   1203   1205 2 139.1 31.2
  1203   1205   1206 2 180 35
  1205   1206   1207 2 120 35
  1206   1207   1208 2 180 35
  1204   1209   1210 2 180 35
  1209   1210   1211 2 180 35
  1210   1211   1212 2 180 35
  1214   1215   1216 2 108 21.5
  1214   1215   1217 2 139.1 31.2
  1215   1217   1218 2 180 35
  1217   1218   1219 2 120 35
  1218   1219   1220 2 180 35
  1216   1221   1222 2 180 35
  1221   1222   1223 2 180 35
  1222   1223   1224 2 180 35
  1226   1227   1228 2 108 21.5
  1226   1227   1229 2 139.1 31.2
  1227   1229   1230 2 180 35
  1229   1230   1231 2 120 35
  1230   1231   1232 2 180 35
  1228   1233   1234 2 180 35
  1233   1234   1235 2 180 35
  1234   1235   1236 2 180 35
  1238   1239   1240 2 108 21.5
  1238   1239   1241 2 139.1 31.2
  1239   1241   1242 2 180 35
  1241   1242   1243 2 120 35
  1242   1243   1244 2 180 35
  1240   1245   1246 2 180 35
  1245   1246   1247 2 180 35
  1246   1247   1248 2 180 35
  1250   1251   1252 2 108 21.5
  1250   1251   1253 2 139.1 31.2
  1251   1253   1254 2 180 35
  1253   1254   1255 2 120 35
  1254   1255   1256 2 180 35
  1252   1257   1258 2 180 35
  1257   1258   1259 2 180 35
  1258   1259   1260 2 180 35
  1262   1263   1264 2 108 21.5
  1262   1263   1265 2 139.1 31.2
  1263   1265   1266 2 180 35
  1265   1266   1267 2 120 35
  1266   1267   1268 2 180 35
  1264   1269   1270 2 180 35
  1269   1270   1271 2 180 35
  1270   1271   1272 2 180 35
  1274   1275   1276 2 108 21.5
  1274   1275   1277 2 139.1 31.2
  1275   1277   1278 2 180 35
  1277   1278   1279 2 120 35
  1278   1279   1280 2 180 35
  1276   1281   1282 2 180 35
  1281   1282   1283 2 180 35
  1282   1283   1284 2 180 35
  1286   1287   1288 2 108 21.5
  1286   1287   1289 2 139.1 31.2
  1287   1289   1290 2 180 35
  1289   1290   1291 2 120 35
  1290   1291   1292 2 180 35
  1288   1293   1294 2 180 35
  1293   1294   1295 2 180 35
  1294   1295   1296 2 180 35
  1298   1299   1300 2 108 21.5
  1298   1299   1301 2 139.1 31.2
  1299   1301   1302 2 180 35
  1301   1302   1303 2 120 35
  1302   1303   1304 2 180 35
  1300   1305   1306 2 180 35
  1305   1306   1307 2 180 35
  1306   1307   1308 2 180 35
  1310   1311   1312 2 108 21.5
  1310   1311   1313 2 139.1 31.2
  1311   1313   1314 2 180 35
  1313   1314   1315 2 120 35
  1314   1315   1316 2 180 35
  1312   1317   1318 2 180 35
  1317   1318   1319 2 180 35
  1318   1319   1320 2 180 35
  1322   1323   1324 2 108 21.5
  1322   1323   1325 2 139.1 31.2
  1323   1325   1326 2 180 35
  1325   1326   1327 2 120 35
  1326   1327   1328 2 180 35
  1324   1329   1330 2 180 35
  1329   1330   1331 2 180 35
  1330   1331   1332 2 180 35
  1334   1335   1336 2 108 21.5
  1334   1335   1337 2 139.1 31.2
  1335   1337   1338 2 180 35
  1337   1338   1339 2 120 35
  1338   1339   1340 2 180 35
  1336   1341   1342 2 180 35
  1341   1342   1343 2 180 35
  1342   1343   1344 2 180 35
  1346   1347   1348 2 108 21.5
  1346   1347   1349 2 139.1 31.2
  1347   1349   1350 2 180 35
  1349   1350   1351 2 120 35
  1350   1351   1352 2 180 35
  1348   1353   1354 2 180 35
  1353   1354   1355 2 180 35
  1354   1355   1356 2 180 35
  1358   1359   1360 2 108 21.5
  1358   1359   1361 2 139.1 31.2
  1359   1361   1362 2 180 35
  1361   1362   1363 2 120 35
  1362   1363   1364 2 180 35
  1360   1365   1366 2 180 35
  1365   1366   1367 2 180 35
  1366   1367   1368 2 180 35
  1370   1371   1372 2 108 21.5
  1370   1371   1373 2 139.1 31.2
  1371   1373   1374 2 180 35
  1373   1374   1375 2 120 35
  1374   1375   1376 2 180 35
  1372   1377   1378 2 180 35
  1377   1378   1379 2 180 35
  1378   1379   1380 2 180 35
  1382   1383   1384 2 108 21.5
  1382   1383   1385 2 139.1 31.2
  1383   1385   1386 2 180 35
  1385   1386   1387 2 120 35
  1386   1387   1388 2 180 35
  1384   1389   1390 2 180 35
  1389   1390   1391 2 180 35
  1390   1391   1392 2 180 35
  1394   1395   1396 2 108 21.5
  1394   1395   1397 2 139.1 31.2
  1395   1397   1398 2 180 35
  1397   1398   1399 2 120 35
  1398   1399   1400 2 180 35
  1396   1401   1402 2 180 35
  1401   1402   1403 2 180 35
  1402   1403   1404 2 180 35
  1406   1407   1408 2 108 21.5
  1406   1407   1409 2 139.1 31.2
  1407   1409   1410 2 180 35
  1409   1410   1411 2 120 35
  1410   1411   1412 2 180 35
  1408   1413   1414 2 180 35
  1413   1414   1415 2 180 35
  1414   1415   1416 2 180 35
  1418   1419   1420 2 108 21.5
  1418   1419   1421 2 139.1 31.2
  1419   1421   1422 2 180 35
  1421   1422   1423 2 120 35
  1422   1423   1424 2 180 35
  1420   1425   1426 2 180 35
  1425   1426   1427 2 180 35
  1426   1427   1428 2 180 35
  1430   1431   1432 2 108 21.5
  1430   1431   1433 2 139.1 31.2
  1431   1433   1434 2 180 35
  1433   1434   1435 2 120 35
  1434   1435   1436 2 180 35
  1432   1437   1438 2 180 35
  1437   1438   1439 2 180 35
  1438   1439   1440 2 180 35
  1442   1443   1444 2 108 21.5
  1442   1443   1445 2 139.1 31.2
  1443   1445   1446 2 180 35
  1445   1446   1447 2 120 35
  1446   1447   1448 2 180 35
  1444   1449   1450 2 180 35
  1449   1450   1451 2 180 35
  1450   1451   1452 2 180 35
  1454   1455   1456 2 108 21.5
  1454   1455   1457 2 139.1 31.2
  1455   1457   1458 2 180 35
  1457   1458   1459 2 120 35
  1458   1459   1460 2 180 35
  1456   1461   1462 2 180 35
  1461   1462   1463 2 180 35
  1462   1463   1464 2 180 35
  1466   1467   1468 2 108 21.5
  1466   1467   1469 2 139.1 31.2
  1467   1469   1470 2 180 35
  1469   1470   1471 2 120 35
  1470   1471   1472 2 180 35
  1468   1473   1474 2 180 35
  1473   1474   1475 2 180 35
  1474   1475   1476 2 180 35
  1478   1479   1480 2 108 21.5
  1478   1479   1481 2 139.1 31.2
  1479   1481   1482 2 180 35
  1481   1482   1483 2 120 35
  1482   1483   1484 2 180 35
  1480   1485   1486 2 180 35
  1485   1486   1487 2 180 35
  1486   1487   1488 2 180 35
  1490   1491   1492 2 108 21.5
  1490   1491   1493 2 139.1 31.2
  1491   1493   1494 2 180 35
  1493   1494   1495 2 120 35
  1494   1495   1496 2 180 35
  1492   1497   1498 2 180 35
  1497   1498   1499 2 180 35
  1498   1499   1500 2 180 35
  1502   1503   1504 2 108 21.5
  1502   1503   1505 2 139.1 31.2
  1503   1505   1506 2 180 35
  1505   1506   1507 2 120 35
  1506   1507   1508 2 180 35
  1504   1509   1510 2 180 35
  1509   1510   1511 2 180 35
  1510   1511   1512 2 180 35
  1514   1515   1516 2 108 21.5
  1514   1515   1517 2 139.1 31.2
  1515   1517   1518 2 180 35
  1517   1518   1519 2 120 35
  1518   1519   1520 2 180 35
  1516   1521   1522 2 180 35
  1521   1522   1523 2 180 35
  1522   1523   1524 2 180 35
  1526   1527   1528 2 108 21.5
  1526   1527   1529 2 139.1 31.2
  1527   1529   1530 2 180 35
  1529   1530   1531 2 120 35
  1530   1531   1532 2 180 35
  1528   1533   1534 2 180 35
  1533   1534   1535 2 180 35
  1534   1535   1536 2 180 35

[ system ]
MARTINI 3 POPC bilayer (insane), 1 us NPT at 310 K

[ molecules ]
SYS 1
