4 TIP3P waters of one MARTINI W bead, coordinates from the CG2AT martini_3-0_slipids W fragment
12
    1W      OW1    1   2.091   2.113   7.530
    1W     HW11    2   2.058   2.166   7.602
    1W     HW12    3   2.164   2.164   7.494
    1W      OW2    4   2.100   2.296   7.711
    1W     HW21    5   2.139   2.322   7.627
    1W     HW22    6   2.145   2.216   7.736
    1W      OW3    7   2.265   2.302   7.508
    1W     HW31    8   2.283   2.241   7.579
    1W     HW32    9   2.351   2.334   7.481
    1W      OW4   10   2.289   2.119   7.698
    1W     HW41   11   2.213   2.097   7.644
    1W     HW42   12   2.309   2.038   7.746
   3.00000   3.00000   3.00000
