; GROMACS like hybrid topology file.
; =====================

#include /apps/leuven/thinking/2014a/software/GROMACS/5.0.4-intel-2014a-hybrid/share/gromacs/top/oplsaa.ff/forcefield.itp


[ atomtypes ]
A 72.066799 0.0 V 1.0 1.0

[ bondtypes ]
A A 8 1.0 1.0

[ moleculetype ]
HYB 3

[ atoms ]
1 A 1 MF A1 1 0.0 72.06679999999997
2 opls_902 1 MF N11 2 -0.407377 14.0067
3 opls_145 1 MF C11 3 0.682493 12.011
4 opls_901 1 MF N21 4 -0.299731 14.0067
5 opls_157 1 MF C1 5 0.024669 12.011
6 opls_154 1 MF O1 6 0.0 15.9994
7 opls_156 1 MF H011 8 0.0 1.008
8 opls_156 1 MF H012 9 0.0 1.008
9 opls_910 1 MF H21 10 0.0 1.008
10 A 1 MF A2 11 0.0 72.06679999999997
11 opls_902 1 MF N12 12 -0.407374 14.0067
12 opls_145 1 MF C12 13 0.682437 12.011
13 opls_901 1 MF N22 14 -0.299729 14.0067
14 opls_157 1 MF C2 15 0.024672 12.011
15 opls_154 1 MF O2 16 0.0 15.9994
16 opls_156 1 MF H021 18 0.0 1.008
17 opls_156 1 MF H022 19 0.0 1.008
18 opls_910 1 MF H31 20 0.0 1.008
19 A 1 MF A3 21 0.0 72.06679999999997
20 opls_902 1 MF N13 22 -0.407483 14.0067
21 opls_145 1 MF C13 23 0.682492 12.011
22 opls_901 1 MF N23 24 -0.299758 14.0067
23 opls_157 1 MF C3 25 0.024689 12.011
24 opls_154 1 MF O3 26 0.0 15.9994
25 opls_156 1 MF H031 28 0.0 1.008
26 opls_156 1 MF H032 29 0.0 1.008
27 opls_910 1 MF H11 30 0.0 1.008
28 A 2 MF A1 31 0.0 72.06679999999997
29 opls_902 2 MF N11 32 -0.407377 14.0067
30 opls_145 2 MF C11 33 0.682493 12.011
31 opls_901 2 MF N21 34 -0.299731 14.0067
32 opls_157 2 MF C1 35 0.024669 12.011
33 opls_154 2 MF O1 36 0.0 15.9994
34 opls_156 2 MF H011 38 0.0 1.008
35 opls_156 2 MF H012 39 0.0 1.008
36 opls_910 2 MF H21 40 0.0 1.008
37 A 2 MF A2 41 0.0 72.06679999999997
38 opls_902 2 MF N12 42 -0.407374 14.0067
39 opls_145 2 MF C12 43 0.682437 12.011
40 opls_901 2 MF N22 44 -0.299729 14.0067
41 opls_157 2 MF C2 45 0.024672 12.011
42 opls_154 2 MF O2 46 0.0 15.9994
43 opls_155 2 MF H02 47 0.0 1.008
44 opls_156 2 MF H021 48 0.0 1.008
45 opls_156 2 MF H022 49 0.0 1.008
46 opls_910 2 MF H31 50 0.0 1.008
47 A 2 MF A3 51 0.0 72.06679999999997
48 opls_902 2 MF N13 52 -0.407483 14.0067
49 opls_145 2 MF C13 53 0.682492 12.011
50 opls_901 2 MF N23 54 -0.299758 14.0067
51 opls_157 2 MF C3 55 0.024689 12.011
52 opls_154 2 MF O3 56 0.0 15.9994
53 opls_155 2 MF H03 57 0.0 1.008
54 opls_156 2 MF H031 58 0.0 1.008
55 opls_156 2 MF H032 59 0.0 1.008
56 opls_910 2 MF H11 60 0.0 1.008
57 A 3 MF A1 61 0.0 72.06679999999997
58 opls_902 3 MF N11 62 -0.407377 14.0067
59 opls_145 3 MF C11 63 0.682493 12.011
60 opls_901 3 MF N21 64 -0.299731 14.0067
61 opls_157 3 MF C1 65 0.024669 12.011
62 opls_154 3 MF O1 66 0.0 15.9994
63 opls_156 3 MF H011 68 0.0 1.008
64 opls_156 3 MF H012 69 0.0 1.008
65 opls_910 3 MF H21 70 0.0 1.008
66 A 3 MF A2 71 0.0 72.06679999999997
67 opls_902 3 MF N12 72 -0.407374 14.0067
68 opls_145 3 MF C12 73 0.682437 12.011
69 opls_901 3 MF N22 74 -0.299729 14.0067
70 opls_157 3 MF C2 75 0.024672 12.011
71 opls_154 3 MF O2 76 0.0 15.9994
72 opls_156 3 MF H021 78 0.0 1.008
73 opls_156 3 MF H022 79 0.0 1.008
74 opls_910 3 MF H31 80 0.0 1.008
75 A 3 MF A3 81 0.0 72.06679999999997
76 opls_902 3 MF N13 82 -0.407483 14.0067
77 opls_145 3 MF C13 83 0.682492 12.011
78 opls_901 3 MF N23 84 -0.299758 14.0067
79 opls_157 3 MF C3 85 0.024689 12.011
80 opls_154 3 MF O3 86 0.0 15.9994
81 opls_156 3 MF H031 88 0.0 1.008
82 opls_156 3 MF H032 89 0.0 1.008
83 opls_910 3 MF H11 90 0.0 1.008
84 A 4 MF A1 91 0.0 72.06679999999997
85 opls_902 4 MF N11 92 -0.407377 14.0067
86 opls_145 4 MF C11 93 0.682493 12.011
87 opls_901 4 MF N21 94 -0.299731 14.0067
88 opls_157 4 MF C1 95 0.024669 12.011
89 opls_154 4 MF O1 96 0.0 15.9994
90 opls_156 4 MF H011 98 0.0 1.008
91 opls_156 4 MF H012 99 0.0 1.008
92 opls_910 4 MF H21 100 0.0 1.008
93 A 4 MF A2 101 0.0 72.06679999999997
94 opls_902 4 MF N12 102 -0.407374 14.0067
95 opls_145 4 MF C12 103 0.682437 12.011
96 opls_901 4 MF N22 104 -0.299729 14.0067
97 opls_157 4 MF C2 105 0.024672 12.011
98 opls_154 4 MF O2 106 0.0 15.9994
99 opls_155 4 MF H02 107 0.0 1.008
100 opls_156 4 MF H021 108 0.0 1.008
101 opls_156 4 MF H022 109 0.0 1.008
102 opls_910 4 MF H31 110 0.0 1.008
103 A 4 MF A3 111 0.0 72.06679999999997
104 opls_902 4 MF N13 112 -0.407483 14.0067
105 opls_145 4 MF C13 113 0.682492 12.011
106 opls_901 4 MF N23 114 -0.299758 14.0067
107 opls_157 4 MF C3 115 0.024689 12.011
108 opls_154 4 MF O3 116 0.0 15.9994
109 opls_156 4 MF H031 118 0.0 1.008
110 opls_156 4 MF H032 119 0.0 1.008
111 opls_910 4 MF H11 120 0.0 1.008
112 A 5 MF A1 121 0.0 72.06679999999997
113 opls_902 5 MF N11 122 -0.407377 14.0067
114 opls_145 5 MF C11 123 0.682493 12.011
115 opls_901 5 MF N21 124 -0.299731 14.0067
116 opls_157 5 MF C1 125 0.024669 12.011
117 opls_154 5 MF O1 126 0.0 15.9994
118 opls_156 5 MF H011 128 0.0 1.008
119 opls_156 5 MF H012 129 0.0 1.008
120 opls_910 5 MF H21 130 0.0 1.008
121 A 5 MF A2 131 0.0 72.06679999999997
122 opls_902 5 MF N12 132 -0.407374 14.0067
123 opls_145 5 MF C12 133 0.682437 12.011
124 opls_901 5 MF N22 134 -0.299729 14.0067
125 opls_157 5 MF C2 135 0.024672 12.011
126 opls_154 5 MF O2 136 0.0 15.9994
127 opls_156 5 MF H021 138 0.0 1.008
128 opls_156 5 MF H022 139 0.0 1.008
129 opls_910 5 MF H31 140 0.0 1.008
130 A 5 MF A3 141 0.0 72.06679999999997
131 opls_902 5 MF N13 142 -0.407483 14.0067
132 opls_145 5 MF C13 143 0.682492 12.011
133 opls_901 5 MF N23 144 -0.299758 14.0067
134 opls_157 5 MF C3 145 0.024689 12.011
135 opls_154 5 MF O3 146 0.0 15.9994
136 opls_156 5 MF H031 148 0.0 1.008
137 opls_156 5 MF H032 149 0.0 1.008
138 opls_910 5 MF H11 150 0.0 1.008
139 A 6 MF A1 151 0.0 72.06679999999997
140 opls_902 6 MF N11 152 -0.407377 14.0067
141 opls_145 6 MF C11 153 0.682493 12.011
142 opls_901 6 MF N21 154 -0.299731 14.0067
143 opls_157 6 MF C1 155 0.024669 12.011
144 opls_154 6 MF O1 156 0.0 15.9994
145 opls_156 6 MF H011 158 0.0 1.008
146 opls_156 6 MF H012 159 0.0 1.008
147 opls_910 6 MF H21 160 0.0 1.008
148 A 6 MF A2 161 0.0 72.06679999999997
149 opls_902 6 MF N12 162 -0.407374 14.0067
150 opls_145 6 MF C12 163 0.682437 12.011
151 opls_901 6 MF N22 164 -0.299729 14.0067
152 opls_157 6 MF C2 165 0.024672 12.011
153 opls_154 6 MF O2 166 0.0 15.9994
154 opls_156 6 MF H021 168 0.0 1.008
155 opls_156 6 MF H022 169 0.0 1.008
156 opls_910 6 MF H31 170 0.0 1.008
157 A 6 MF A3 171 0.0 72.06679999999997
158 opls_902 6 MF N13 172 -0.407483 14.0067
159 opls_145 6 MF C13 173 0.682492 12.011
160 opls_901 6 MF N23 174 -0.299758 14.0067
161 opls_157 6 MF C3 175 0.024689 12.011
162 opls_154 6 MF O3 176 0.0 15.9994
163 opls_156 6 MF H031 178 0.0 1.008
164 opls_156 6 MF H032 179 0.0 1.008
165 opls_910 6 MF H11 180 0.0 1.008
166 A 7 MF A1 181 0.0 72.06679999999997
167 opls_902 7 MF N11 182 -0.407377 14.0067
168 opls_145 7 MF C11 183 0.682493 12.011
169 opls_901 7 MF N21 184 -0.299731 14.0067
170 opls_157 7 MF C1 185 0.024669 12.011
171 opls_154 7 MF O1 186 0.0 15.9994
172 opls_156 7 MF H011 188 0.0 1.008
173 opls_156 7 MF H012 189 0.0 1.008
174 opls_910 7 MF H21 190 0.0 1.008
175 A 7 MF A2 191 0.0 72.06679999999997
176 opls_902 7 MF N12 192 -0.407374 14.0067
177 opls_145 7 MF C12 193 0.682437 12.011
178 opls_901 7 MF N22 194 -0.299729 14.0067
179 opls_157 7 MF C2 195 0.024672 12.011
180 opls_154 7 MF O2 196 0.0 15.9994
181 opls_156 7 MF H021 198 0.0 1.008
182 opls_156 7 MF H022 199 0.0 1.008
183 opls_910 7 MF H31 200 0.0 1.008
184 A 7 MF A3 201 0.0 72.06679999999997
185 opls_902 7 MF N13 202 -0.407483 14.0067
186 opls_145 7 MF C13 203 0.682492 12.011
187 opls_901 7 MF N23 204 -0.299758 14.0067
188 opls_157 7 MF C3 205 0.024689 12.011
189 opls_154 7 MF O3 206 0.0 15.9994
190 opls_156 7 MF H031 208 0.0 1.008
191 opls_156 7 MF H032 209 0.0 1.008
192 opls_910 7 MF H11 210 0.0 1.008
193 A 8 MF A1 211 0.0 72.06679999999997
194 opls_902 8 MF N11 212 -0.407377 14.0067
195 opls_145 8 MF C11 213 0.682493 12.011
196 opls_901 8 MF N21 214 -0.299731 14.0067
197 opls_157 8 MF C1 215 0.024669 12.011
198 opls_154 8 MF O1 216 0.0 15.9994
199 opls_156 8 MF H011 218 0.0 1.008
200 opls_156 8 MF H012 219 0.0 1.008
201 opls_910 8 MF H21 220 0.0 1.008
202 A 8 MF A2 221 0.0 72.06679999999997
203 opls_902 8 MF N12 222 -0.407374 14.0067
204 opls_145 8 MF C12 223 0.682437 12.011
205 opls_901 8 MF N22 224 -0.299729 14.0067
206 opls_157 8 MF C2 225 0.024672 12.011
207 opls_154 8 MF O2 226 0.0 15.9994
208 opls_156 8 MF H021 228 0.0 1.008
209 opls_156 8 MF H022 229 0.0 1.008
210 opls_910 8 MF H31 230 0.0 1.008
211 A 8 MF A3 231 0.0 72.06679999999997
212 opls_902 8 MF N13 232 -0.407483 14.0067
213 opls_145 8 MF C13 233 0.682492 12.011
214 opls_901 8 MF N23 234 -0.299758 14.0067
215 opls_157 8 MF C3 235 0.024689 12.011
216 opls_154 8 MF O3 236 0.0 15.9994
217 opls_155 8 MF H03 237 0.0 1.008
218 opls_156 8 MF H031 238 0.0 1.008
219 opls_156 8 MF H032 239 0.0 1.008
220 opls_910 8 MF H11 240 0.0 1.008
221 A 9 MF A1 241 0.0 72.06679999999997
222 opls_902 9 MF N11 242 -0.407377 14.0067
223 opls_145 9 MF C11 243 0.682493 12.011
224 opls_901 9 MF N21 244 -0.299731 14.0067
225 opls_157 9 MF C1 245 0.024669 12.011
226 opls_154 9 MF O1 246 0.0 15.9994
227 opls_156 9 MF H011 248 0.0 1.008
228 opls_156 9 MF H012 249 0.0 1.008
229 opls_910 9 MF H21 250 0.0 1.008
230 A 9 MF A2 251 0.0 72.06679999999997
231 opls_902 9 MF N12 252 -0.407374 14.0067
232 opls_145 9 MF C12 253 0.682437 12.011
233 opls_901 9 MF N22 254 -0.299729 14.0067
234 opls_157 9 MF C2 255 0.024672 12.011
235 opls_154 9 MF O2 256 0.0 15.9994
236 opls_156 9 MF H021 258 0.0 1.008
237 opls_156 9 MF H022 259 0.0 1.008
238 opls_910 9 MF H31 260 0.0 1.008
239 A 9 MF A3 261 0.0 72.06679999999997
240 opls_902 9 MF N13 262 -0.407483 14.0067
241 opls_145 9 MF C13 263 0.682492 12.011
242 opls_901 9 MF N23 264 -0.299758 14.0067
243 opls_157 9 MF C3 265 0.024689 12.011
244 opls_154 9 MF O3 266 0.0 15.9994
245 opls_156 9 MF H031 268 0.0 1.008
246 opls_156 9 MF H032 269 0.0 1.008
247 opls_910 9 MF H11 270 0.0 1.008
248 A 10 MF A1 271 0.0 72.06679999999997
249 opls_902 10 MF N11 272 -0.407377 14.0067
250 opls_145 10 MF C11 273 0.682493 12.011
251 opls_901 10 MF N21 274 -0.299731 14.0067
252 opls_157 10 MF C1 275 0.024669 12.011
253 opls_154 10 MF O1 276 0.0 15.9994
254 opls_155 10 MF H01 277 0.0 1.008
255 opls_156 10 MF H011 278 0.0 1.008
256 opls_156 10 MF H012 279 0.0 1.008
257 opls_910 10 MF H21 280 0.0 1.008
258 A 10 MF A2 281 0.0 72.06679999999997
259 opls_902 10 MF N12 282 -0.407374 14.0067
260 opls_145 10 MF C12 283 0.682437 12.011
261 opls_901 10 MF N22 284 -0.299729 14.0067
262 opls_157 10 MF C2 285 0.024672 12.011
263 opls_154 10 MF O2 286 0.0 15.9994
264 opls_156 10 MF H021 288 0.0 1.008
265 opls_156 10 MF H022 289 0.0 1.008
266 opls_910 10 MF H31 290 0.0 1.008
267 A 10 MF A3 291 0.0 72.06679999999997
268 opls_902 10 MF N13 292 -0.407483 14.0067
269 opls_145 10 MF C13 293 0.682492 12.011
270 opls_901 10 MF N23 294 -0.299758 14.0067
271 opls_157 10 MF C3 295 0.024689 12.011
272 opls_154 10 MF O3 296 0.0 15.9994
273 opls_156 10 MF H031 298 0.0 1.008
274 opls_156 10 MF H032 299 0.0 1.008
275 opls_910 10 MF H11 300 0.0 1.008
276 A 11 MF A1 301 0.0 72.06679999999997
277 opls_902 11 MF N11 302 -0.407377 14.0067
278 opls_145 11 MF C11 303 0.682493 12.011
279 opls_901 11 MF N21 304 -0.299731 14.0067
280 opls_157 11 MF C1 305 0.024669 12.011
281 opls_154 11 MF O1 306 0.0 15.9994
282 opls_156 11 MF H011 308 0.0 1.008
283 opls_156 11 MF H012 309 0.0 1.008
284 opls_910 11 MF H21 310 0.0 1.008
285 A 11 MF A2 311 0.0 72.06679999999997
286 opls_902 11 MF N12 312 -0.407374 14.0067
287 opls_145 11 MF C12 313 0.682437 12.011
288 opls_901 11 MF N22 314 -0.299729 14.0067
289 opls_157 11 MF C2 315 0.024672 12.011
290 opls_154 11 MF O2 316 0.0 15.9994
291 opls_156 11 MF H021 318 0.0 1.008
292 opls_156 11 MF H022 319 0.0 1.008
293 opls_910 11 MF H31 320 0.0 1.008
294 A 11 MF A3 321 0.0 72.06679999999997
295 opls_902 11 MF N13 322 -0.407483 14.0067
296 opls_145 11 MF C13 323 0.682492 12.011
297 opls_901 11 MF N23 324 -0.299758 14.0067
298 opls_157 11 MF C3 325 0.024689 12.011
299 opls_154 11 MF O3 326 0.0 15.9994
300 opls_156 11 MF H031 328 0.0 1.008
301 opls_156 11 MF H032 329 0.0 1.008
302 opls_910 11 MF H11 330 0.0 1.008
303 A 12 MF A1 331 0.0 72.06679999999997
304 opls_902 12 MF N11 332 -0.407377 14.0067
305 opls_145 12 MF C11 333 0.682493 12.011
306 opls_901 12 MF N21 334 -0.299731 14.0067
307 opls_157 12 MF C1 335 0.024669 12.011
308 opls_154 12 MF O1 336 0.0 15.9994
309 opls_156 12 MF H011 338 0.0 1.008
310 opls_156 12 MF H012 339 0.0 1.008
311 opls_910 12 MF H21 340 0.0 1.008
312 A 12 MF A2 341 0.0 72.06679999999997
313 opls_902 12 MF N12 342 -0.407374 14.0067
314 opls_145 12 MF C12 343 0.682437 12.011
315 opls_901 12 MF N22 344 -0.299729 14.0067
316 opls_157 12 MF C2 345 0.024672 12.011
317 opls_154 12 MF O2 346 0.0 15.9994
318 opls_156 12 MF H021 348 0.0 1.008
319 opls_156 12 MF H022 349 0.0 1.008
320 opls_910 12 MF H31 350 0.0 1.008
321 A 12 MF A3 351 0.0 72.06679999999997
322 opls_902 12 MF N13 352 -0.407483 14.0067
323 opls_145 12 MF C13 353 0.682492 12.011
324 opls_901 12 MF N23 354 -0.299758 14.0067
325 opls_157 12 MF C3 355 0.024689 12.011
326 opls_154 12 MF O3 356 0.0 15.9994
327 opls_156 12 MF H031 358 0.0 1.008
328 opls_156 12 MF H032 359 0.0 1.008
329 opls_910 12 MF H11 360 0.0 1.008
330 A 13 MF A1 361 0.0 72.06679999999997
331 opls_902 13 MF N11 362 -0.407377 14.0067
332 opls_145 13 MF C11 363 0.682493 12.011
333 opls_901 13 MF N21 364 -0.299731 14.0067
334 opls_157 13 MF C1 365 0.024669 12.011
335 opls_154 13 MF O1 366 0.0 15.9994
336 opls_156 13 MF H011 368 0.0 1.008
337 opls_156 13 MF H012 369 0.0 1.008
338 opls_910 13 MF H21 370 0.0 1.008
339 A 13 MF A2 371 0.0 72.06679999999997
340 opls_902 13 MF N12 372 -0.407374 14.0067
341 opls_145 13 MF C12 373 0.682437 12.011
342 opls_901 13 MF N22 374 -0.299729 14.0067
343 opls_157 13 MF C2 375 0.024672 12.011
344 opls_154 13 MF O2 376 0.0 15.9994
345 opls_155 13 MF H02 377 0.0 1.008
346 opls_156 13 MF H021 378 0.0 1.008
347 opls_156 13 MF H022 379 0.0 1.008
348 opls_910 13 MF H31 380 0.0 1.008
349 A 13 MF A3 381 0.0 72.06679999999997
350 opls_902 13 MF N13 382 -0.407483 14.0067
351 opls_145 13 MF C13 383 0.682492 12.011
352 opls_901 13 MF N23 384 -0.299758 14.0067
353 opls_157 13 MF C3 385 0.024689 12.011
354 opls_154 13 MF O3 386 0.0 15.9994
355 opls_156 13 MF H031 388 0.0 1.008
356 opls_156 13 MF H032 389 0.0 1.008
357 opls_910 13 MF H11 390 0.0 1.008
358 A 14 MF A1 391 0.0 72.06679999999997
359 opls_902 14 MF N11 392 -0.407377 14.0067
360 opls_145 14 MF C11 393 0.682493 12.011
361 opls_901 14 MF N21 394 -0.299731 14.0067
362 opls_157 14 MF C1 395 0.024669 12.011
363 opls_154 14 MF O1 396 0.0 15.9994
364 opls_156 14 MF H011 398 0.0 1.008
365 opls_156 14 MF H012 399 0.0 1.008
366 opls_910 14 MF H21 400 0.0 1.008
367 A 14 MF A2 401 0.0 72.06679999999997
368 opls_902 14 MF N12 402 -0.407374 14.0067
369 opls_145 14 MF C12 403 0.682437 12.011
370 opls_901 14 MF N22 404 -0.299729 14.0067
371 opls_157 14 MF C2 405 0.024672 12.011
372 opls_154 14 MF O2 406 0.0 15.9994
373 opls_155 14 MF H02 407 0.0 1.008
374 opls_156 14 MF H021 408 0.0 1.008
375 opls_156 14 MF H022 409 0.0 1.008
376 opls_910 14 MF H31 410 0.0 1.008
377 A 14 MF A3 411 0.0 72.06679999999997
378 opls_902 14 MF N13 412 -0.407483 14.0067
379 opls_145 14 MF C13 413 0.682492 12.011
380 opls_901 14 MF N23 414 -0.299758 14.0067
381 opls_157 14 MF C3 415 0.024689 12.011
382 opls_154 14 MF O3 416 0.0 15.9994
383 opls_156 14 MF H031 418 0.0 1.008
384 opls_156 14 MF H032 419 0.0 1.008
385 opls_910 14 MF H11 420 0.0 1.008
386 A 15 MF A1 421 0.0 72.06679999999997
387 opls_902 15 MF N11 422 -0.407377 14.0067
388 opls_145 15 MF C11 423 0.682493 12.011
389 opls_901 15 MF N21 424 -0.299731 14.0067
390 opls_157 15 MF C1 425 0.024669 12.011
391 opls_154 15 MF O1 426 0.0 15.9994
392 opls_156 15 MF H011 428 0.0 1.008
393 opls_156 15 MF H012 429 0.0 1.008
394 opls_910 15 MF H21 430 0.0 1.008
395 A 15 MF A2 431 0.0 72.06679999999997
396 opls_902 15 MF N12 432 -0.407374 14.0067
397 opls_145 15 MF C12 433 0.682437 12.011
398 opls_901 15 MF N22 434 -0.299729 14.0067
399 opls_157 15 MF C2 435 0.024672 12.011
400 opls_154 15 MF O2 436 0.0 15.9994
401 opls_155 15 MF H02 437 0.0 1.008
402 opls_156 15 MF H021 438 0.0 1.008
403 opls_156 15 MF H022 439 0.0 1.008
404 opls_910 15 MF H31 440 0.0 1.008
405 A 15 MF A3 441 0.0 72.06679999999997
406 opls_902 15 MF N13 442 -0.407483 14.0067
407 opls_145 15 MF C13 443 0.682492 12.011
408 opls_901 15 MF N23 444 -0.299758 14.0067
409 opls_157 15 MF C3 445 0.024689 12.011
410 opls_154 15 MF O3 446 0.0 15.9994
411 opls_156 15 MF H031 448 0.0 1.008
412 opls_156 15 MF H032 449 0.0 1.008
413 opls_910 15 MF H11 450 0.0 1.008
414 A 16 MF A1 451 0.0 72.06679999999997
415 opls_902 16 MF N11 452 -0.407377 14.0067
416 opls_145 16 MF C11 453 0.682493 12.011
417 opls_901 16 MF N21 454 -0.299731 14.0067
418 opls_157 16 MF C1 455 0.024669 12.011
419 opls_154 16 MF O1 456 0.0 15.9994
420 opls_156 16 MF H011 458 0.0 1.008
421 opls_156 16 MF H012 459 0.0 1.008
422 opls_910 16 MF H21 460 0.0 1.008
423 A 16 MF A2 461 0.0 72.06679999999997
424 opls_902 16 MF N12 462 -0.407374 14.0067
425 opls_145 16 MF C12 463 0.682437 12.011
426 opls_901 16 MF N22 464 -0.299729 14.0067
427 opls_157 16 MF C2 465 0.024672 12.011
428 opls_154 16 MF O2 466 0.0 15.9994
429 opls_156 16 MF H021 468 0.0 1.008
430 opls_156 16 MF H022 469 0.0 1.008
431 opls_910 16 MF H31 470 0.0 1.008
432 A 16 MF A3 471 0.0 72.06679999999997
433 opls_902 16 MF N13 472 -0.407483 14.0067
434 opls_145 16 MF C13 473 0.682492 12.011
435 opls_901 16 MF N23 474 -0.299758 14.0067
436 opls_157 16 MF C3 475 0.024689 12.011
437 opls_154 16 MF O3 476 0.0 15.9994
438 opls_156 16 MF H031 478 0.0 1.008
439 opls_156 16 MF H032 479 0.0 1.008
440 opls_910 16 MF H11 480 0.0 1.008
441 A 17 MF A1 481 0.0 72.06679999999997
442 opls_902 17 MF N11 482 -0.407377 14.0067
443 opls_145 17 MF C11 483 0.682493 12.011
444 opls_901 17 MF N21 484 -0.299731 14.0067
445 opls_157 17 MF C1 485 0.024669 12.011
446 opls_154 17 MF O1 486 0.0 15.9994
447 opls_156 17 MF H011 488 0.0 1.008
448 opls_156 17 MF H012 489 0.0 1.008
449 opls_910 17 MF H21 490 0.0 1.008
450 A 17 MF A2 491 0.0 72.06679999999997
451 opls_902 17 MF N12 492 -0.407374 14.0067
452 opls_145 17 MF C12 493 0.682437 12.011
453 opls_901 17 MF N22 494 -0.299729 14.0067
454 opls_157 17 MF C2 495 0.024672 12.011
455 opls_154 17 MF O2 496 0.0 15.9994
456 opls_156 17 MF H021 498 0.0 1.008
457 opls_156 17 MF H022 499 0.0 1.008
458 opls_910 17 MF H31 500 0.0 1.008
459 A 17 MF A3 501 0.0 72.06679999999997
460 opls_902 17 MF N13 502 -0.407483 14.0067
461 opls_145 17 MF C13 503 0.682492 12.011
462 opls_901 17 MF N23 504 -0.299758 14.0067
463 opls_157 17 MF C3 505 0.024689 12.011
464 opls_154 17 MF O3 506 0.0 15.9994
465 opls_156 17 MF H031 508 0.0 1.008
466 opls_156 17 MF H032 509 0.0 1.008
467 opls_910 17 MF H11 510 0.0 1.008
468 A 18 MF A1 511 0.0 72.06679999999997
469 opls_902 18 MF N11 512 -0.407377 14.0067
470 opls_145 18 MF C11 513 0.682493 12.011
471 opls_901 18 MF N21 514 -0.299731 14.0067
472 opls_157 18 MF C1 515 0.024669 12.011
473 opls_154 18 MF O1 516 0.0 15.9994
474 opls_156 18 MF H011 518 0.0 1.008
475 opls_156 18 MF H012 519 0.0 1.008
476 opls_910 18 MF H21 520 0.0 1.008
477 A 18 MF A2 521 0.0 72.06679999999997
478 opls_902 18 MF N12 522 -0.407374 14.0067
479 opls_145 18 MF C12 523 0.682437 12.011
480 opls_901 18 MF N22 524 -0.299729 14.0067
481 opls_157 18 MF C2 525 0.024672 12.011
482 opls_154 18 MF O2 526 0.0 15.9994
483 opls_156 18 MF H021 528 0.0 1.008
484 opls_156 18 MF H022 529 0.0 1.008
485 opls_910 18 MF H31 530 0.0 1.008
486 A 18 MF A3 531 0.0 72.06679999999997
487 opls_902 18 MF N13 532 -0.407483 14.0067
488 opls_145 18 MF C13 533 0.682492 12.011
489 opls_901 18 MF N23 534 -0.299758 14.0067
490 opls_157 18 MF C3 535 0.024689 12.011
491 opls_154 18 MF O3 536 0.0 15.9994
492 opls_156 18 MF H031 538 0.0 1.008
493 opls_156 18 MF H032 539 0.0 1.008
494 opls_910 18 MF H11 540 0.0 1.008
495 A 19 MF A1 541 0.0 72.06679999999997
496 opls_902 19 MF N11 542 -0.407377 14.0067
497 opls_145 19 MF C11 543 0.682493 12.011
498 opls_901 19 MF N21 544 -0.299731 14.0067
499 opls_157 19 MF C1 545 0.024669 12.011
500 opls_154 19 MF O1 546 0.0 15.9994
501 opls_156 19 MF H011 548 0.0 1.008
502 opls_156 19 MF H012 549 0.0 1.008
503 opls_910 19 MF H21 550 0.0 1.008
504 A 19 MF A2 551 0.0 72.06679999999997
505 opls_902 19 MF N12 552 -0.407374 14.0067
506 opls_145 19 MF C12 553 0.682437 12.011
507 opls_901 19 MF N22 554 -0.299729 14.0067
508 opls_157 19 MF C2 555 0.024672 12.011
509 opls_154 19 MF O2 556 0.0 15.9994
510 opls_156 19 MF H021 558 0.0 1.008
511 opls_156 19 MF H022 559 0.0 1.008
512 opls_910 19 MF H31 560 0.0 1.008
513 A 19 MF A3 561 0.0 72.06679999999997
514 opls_902 19 MF N13 562 -0.407483 14.0067
515 opls_145 19 MF C13 563 0.682492 12.011
516 opls_901 19 MF N23 564 -0.299758 14.0067
517 opls_157 19 MF C3 565 0.024689 12.011
518 opls_154 19 MF O3 566 0.0 15.9994
519 opls_156 19 MF H031 568 0.0 1.008
520 opls_156 19 MF H032 569 0.0 1.008
521 opls_910 19 MF H11 570 0.0 1.008
522 A 20 MF A1 571 0.0 72.06679999999997
523 opls_902 20 MF N11 572 -0.407377 14.0067
524 opls_145 20 MF C11 573 0.682493 12.011
525 opls_901 20 MF N21 574 -0.299731 14.0067
526 opls_157 20 MF C1 575 0.024669 12.011
527 opls_156 20 MF H011 578 0.0 1.008
528 opls_156 20 MF H012 579 0.0 1.008
529 opls_910 20 MF H21 580 0.0 1.008
530 A 20 MF A2 581 0.0 72.06679999999997
531 opls_902 20 MF N12 582 -0.407374 14.0067
532 opls_145 20 MF C12 583 0.682437 12.011
533 opls_901 20 MF N22 584 -0.299729 14.0067
534 opls_157 20 MF C2 585 0.024672 12.011
535 opls_154 20 MF O2 586 0.0 15.9994
536 opls_156 20 MF H021 588 0.0 1.008
537 opls_156 20 MF H022 589 0.0 1.008
538 opls_910 20 MF H31 590 0.0 1.008
539 A 20 MF A3 591 0.0 72.06679999999997
540 opls_902 20 MF N13 592 -0.407483 14.0067
541 opls_145 20 MF C13 593 0.682492 12.011
542 opls_901 20 MF N23 594 -0.299758 14.0067
543 opls_157 20 MF C3 595 0.024689 12.011
544 opls_154 20 MF O3 596 0.0 15.9994
545 opls_156 20 MF H031 598 0.0 1.008
546 opls_156 20 MF H032 599 0.0 1.008
547 opls_910 20 MF H11 600 0.0 1.008
548 A 21 MF A1 601 0.0 72.06679999999997
549 opls_902 21 MF N11 602 -0.407377 14.0067
550 opls_145 21 MF C11 603 0.682493 12.011
551 opls_901 21 MF N21 604 -0.299731 14.0067
552 opls_157 21 MF C1 605 0.024669 12.011
553 opls_154 21 MF O1 606 0.0 15.9994
554 opls_156 21 MF H011 608 0.0 1.008
555 opls_156 21 MF H012 609 0.0 1.008
556 opls_910 21 MF H21 610 0.0 1.008
557 A 21 MF A2 611 0.0 72.06679999999997
558 opls_902 21 MF N12 612 -0.407374 14.0067
559 opls_145 21 MF C12 613 0.682437 12.011
560 opls_901 21 MF N22 614 -0.299729 14.0067
561 opls_157 21 MF C2 615 0.024672 12.011
562 opls_154 21 MF O2 616 0.0 15.9994
563 opls_155 21 MF H02 617 0.0 1.008
564 opls_156 21 MF H021 618 0.0 1.008
565 opls_156 21 MF H022 619 0.0 1.008
566 opls_910 21 MF H31 620 0.0 1.008
567 A 21 MF A3 621 0.0 72.06679999999997
568 opls_902 21 MF N13 622 -0.407483 14.0067
569 opls_145 21 MF C13 623 0.682492 12.011
570 opls_901 21 MF N23 624 -0.299758 14.0067
571 opls_157 21 MF C3 625 0.024689 12.011
572 opls_154 21 MF O3 626 0.0 15.9994
573 opls_156 21 MF H031 628 0.0 1.008
574 opls_156 21 MF H032 629 0.0 1.008
575 opls_910 21 MF H11 630 0.0 1.008
576 A 22 MF A1 631 0.0 72.06679999999997
577 opls_902 22 MF N11 632 -0.407377 14.0067
578 opls_145 22 MF C11 633 0.682493 12.011
579 opls_901 22 MF N21 634 -0.299731 14.0067
580 opls_157 22 MF C1 635 0.024669 12.011
581 opls_154 22 MF O1 636 0.0 15.9994
582 opls_156 22 MF H011 638 0.0 1.008
583 opls_156 22 MF H012 639 0.0 1.008
584 opls_910 22 MF H21 640 0.0 1.008
585 A 22 MF A2 641 0.0 72.06679999999997
586 opls_902 22 MF N12 642 -0.407374 14.0067
587 opls_145 22 MF C12 643 0.682437 12.011
588 opls_901 22 MF N22 644 -0.299729 14.0067
589 opls_157 22 MF C2 645 0.024672 12.011
590 opls_154 22 MF O2 646 0.0 15.9994
591 opls_156 22 MF H021 648 0.0 1.008
592 opls_156 22 MF H022 649 0.0 1.008
593 opls_910 22 MF H31 650 0.0 1.008
594 A 22 MF A3 651 0.0 72.06679999999997
595 opls_902 22 MF N13 652 -0.407483 14.0067
596 opls_145 22 MF C13 653 0.682492 12.011
597 opls_901 22 MF N23 654 -0.299758 14.0067
598 opls_157 22 MF C3 655 0.024689 12.011
599 opls_154 22 MF O3 656 0.0 15.9994
600 opls_156 22 MF H031 658 0.0 1.008
601 opls_156 22 MF H032 659 0.0 1.008
602 opls_910 22 MF H11 660 0.0 1.008
603 A 23 MF A1 661 0.0 72.06679999999997
604 opls_902 23 MF N11 662 -0.407377 14.0067
605 opls_145 23 MF C11 663 0.682493 12.011
606 opls_901 23 MF N21 664 -0.299731 14.0067
607 opls_157 23 MF C1 665 0.024669 12.011
608 opls_154 23 MF O1 666 0.0 15.9994
609 opls_156 23 MF H011 668 0.0 1.008
610 opls_156 23 MF H012 669 0.0 1.008
611 opls_910 23 MF H21 670 0.0 1.008
612 A 23 MF A2 671 0.0 72.06679999999997
613 opls_902 23 MF N12 672 -0.407374 14.0067
614 opls_145 23 MF C12 673 0.682437 12.011
615 opls_901 23 MF N22 674 -0.299729 14.0067
616 opls_157 23 MF C2 675 0.024672 12.011
617 opls_154 23 MF O2 676 0.0 15.9994
618 opls_155 23 MF H02 677 0.0 1.008
619 opls_156 23 MF H021 678 0.0 1.008
620 opls_156 23 MF H022 679 0.0 1.008
621 opls_910 23 MF H31 680 0.0 1.008
622 A 23 MF A3 681 0.0 72.06679999999997
623 opls_902 23 MF N13 682 -0.407483 14.0067
624 opls_145 23 MF C13 683 0.682492 12.011
625 opls_901 23 MF N23 684 -0.299758 14.0067
626 opls_157 23 MF C3 685 0.024689 12.011
627 opls_154 23 MF O3 686 0.0 15.9994
628 opls_156 23 MF H031 688 0.0 1.008
629 opls_156 23 MF H032 689 0.0 1.008
630 opls_910 23 MF H11 690 0.0 1.008
631 A 24 MF A1 691 0.0 72.06679999999997
632 opls_902 24 MF N11 692 -0.407377 14.0067
633 opls_145 24 MF C11 693 0.682493 12.011
634 opls_901 24 MF N21 694 -0.299731 14.0067
635 opls_157 24 MF C1 695 0.024669 12.011
636 opls_154 24 MF O1 696 0.0 15.9994
637 opls_156 24 MF H011 698 0.0 1.008
638 opls_156 24 MF H012 699 0.0 1.008
639 opls_910 24 MF H21 700 0.0 1.008
640 A 24 MF A2 701 0.0 72.06679999999997
641 opls_902 24 MF N12 702 -0.407374 14.0067
642 opls_145 24 MF C12 703 0.682437 12.011
643 opls_901 24 MF N22 704 -0.299729 14.0067
644 opls_157 24 MF C2 705 0.024672 12.011
645 opls_154 24 MF O2 706 0.0 15.9994
646 opls_156 24 MF H021 708 0.0 1.008
647 opls_156 24 MF H022 709 0.0 1.008
648 opls_910 24 MF H31 710 0.0 1.008
649 A 24 MF A3 711 0.0 72.06679999999997
650 opls_902 24 MF N13 712 -0.407483 14.0067
651 opls_145 24 MF C13 713 0.682492 12.011
652 opls_901 24 MF N23 714 -0.299758 14.0067
653 opls_157 24 MF C3 715 0.024689 12.011
654 opls_154 24 MF O3 716 0.0 15.9994
655 opls_156 24 MF H031 718 0.0 1.008
656 opls_156 24 MF H032 719 0.0 1.008
657 opls_910 24 MF H11 720 0.0 1.008
658 A 25 MF A1 721 0.0 72.06679999999997
659 opls_902 25 MF N11 722 -0.407377 14.0067
660 opls_145 25 MF C11 723 0.682493 12.011
661 opls_901 25 MF N21 724 -0.299731 14.0067
662 opls_157 25 MF C1 725 0.024669 12.011
663 opls_154 25 MF O1 726 0.0 15.9994
664 opls_156 25 MF H011 728 0.0 1.008
665 opls_156 25 MF H012 729 0.0 1.008
666 opls_910 25 MF H21 730 0.0 1.008
667 A 25 MF A2 731 0.0 72.06679999999997
668 opls_902 25 MF N12 732 -0.407374 14.0067
669 opls_145 25 MF C12 733 0.682437 12.011
670 opls_901 25 MF N22 734 -0.299729 14.0067
671 opls_157 25 MF C2 735 0.024672 12.011
672 opls_154 25 MF O2 736 0.0 15.9994
673 opls_156 25 MF H021 738 0.0 1.008
674 opls_156 25 MF H022 739 0.0 1.008
675 opls_910 25 MF H31 740 0.0 1.008
676 A 25 MF A3 741 0.0 72.06679999999997
677 opls_902 25 MF N13 742 -0.407483 14.0067
678 opls_145 25 MF C13 743 0.682492 12.011
679 opls_901 25 MF N23 744 -0.299758 14.0067
680 opls_157 25 MF C3 745 0.024689 12.011
681 opls_154 25 MF O3 746 0.0 15.9994
682 opls_156 25 MF H031 748 0.0 1.008
683 opls_156 25 MF H032 749 0.0 1.008
684 opls_910 25 MF H11 750 0.0 1.008
685 A 26 MF A1 751 0.0 72.06679999999997
686 opls_902 26 MF N11 752 -0.407377 14.0067
687 opls_145 26 MF C11 753 0.682493 12.011
688 opls_901 26 MF N21 754 -0.299731 14.0067
689 opls_157 26 MF C1 755 0.024669 12.011
690 opls_154 26 MF O1 756 0.0 15.9994
691 opls_155 26 MF H01 757 0.0 1.008
692 opls_156 26 MF H011 758 0.0 1.008
693 opls_156 26 MF H012 759 0.0 1.008
694 opls_910 26 MF H21 760 0.0 1.008
695 A 26 MF A2 761 0.0 72.06679999999997
696 opls_902 26 MF N12 762 -0.407374 14.0067
697 opls_145 26 MF C12 763 0.682437 12.011
698 opls_901 26 MF N22 764 -0.299729 14.0067
699 opls_157 26 MF C2 765 0.024672 12.011
700 opls_154 26 MF O2 766 0.0 15.9994
701 opls_156 26 MF H021 768 0.0 1.008
702 opls_156 26 MF H022 769 0.0 1.008
703 opls_910 26 MF H31 770 0.0 1.008
704 A 26 MF A3 771 0.0 72.06679999999997
705 opls_902 26 MF N13 772 -0.407483 14.0067
706 opls_145 26 MF C13 773 0.682492 12.011
707 opls_901 26 MF N23 774 -0.299758 14.0067
708 opls_157 26 MF C3 775 0.024689 12.011
709 opls_154 26 MF O3 776 0.0 15.9994
710 opls_156 26 MF H031 778 0.0 1.008
711 opls_156 26 MF H032 779 0.0 1.008
712 opls_910 26 MF H11 780 0.0 1.008
713 A 27 MF A1 781 0.0 72.06679999999997
714 opls_902 27 MF N11 782 -0.407377 14.0067
715 opls_145 27 MF C11 783 0.682493 12.011
716 opls_901 27 MF N21 784 -0.299731 14.0067
717 opls_157 27 MF C1 785 0.024669 12.011
718 opls_154 27 MF O1 786 0.0 15.9994
719 opls_156 27 MF H011 788 0.0 1.008
720 opls_156 27 MF H012 789 0.0 1.008
721 opls_910 27 MF H21 790 0.0 1.008
722 A 27 MF A2 791 0.0 72.06679999999997
723 opls_902 27 MF N12 792 -0.407374 14.0067
724 opls_145 27 MF C12 793 0.682437 12.011
725 opls_901 27 MF N22 794 -0.299729 14.0067
726 opls_157 27 MF C2 795 0.024672 12.011
727 opls_156 27 MF H021 798 0.0 1.008
728 opls_156 27 MF H022 799 0.0 1.008
729 opls_910 27 MF H31 800 0.0 1.008
730 A 27 MF A3 801 0.0 72.06679999999997
731 opls_902 27 MF N13 802 -0.407483 14.0067
732 opls_145 27 MF C13 803 0.682492 12.011
733 opls_901 27 MF N23 804 -0.299758 14.0067
734 opls_157 27 MF C3 805 0.024689 12.011
735 opls_154 27 MF O3 806 0.0 15.9994
736 opls_156 27 MF H031 808 0.0 1.008
737 opls_156 27 MF H032 809 0.0 1.008
738 opls_910 27 MF H11 810 0.0 1.008
739 A 28 MF A1 811 0.0 72.06679999999997
740 opls_902 28 MF N11 812 -0.407377 14.0067
741 opls_145 28 MF C11 813 0.682493 12.011
742 opls_901 28 MF N21 814 -0.299731 14.0067
743 opls_157 28 MF C1 815 0.024669 12.011
744 opls_154 28 MF O1 816 0.0 15.9994
745 opls_156 28 MF H011 818 0.0 1.008
746 opls_156 28 MF H012 819 0.0 1.008
747 opls_910 28 MF H21 820 0.0 1.008
748 A 28 MF A2 821 0.0 72.06679999999997
749 opls_902 28 MF N12 822 -0.407374 14.0067
750 opls_145 28 MF C12 823 0.682437 12.011
751 opls_901 28 MF N22 824 -0.299729 14.0067
752 opls_157 28 MF C2 825 0.024672 12.011
753 opls_154 28 MF O2 826 0.0 15.9994
754 opls_155 28 MF H02 827 0.0 1.008
755 opls_156 28 MF H021 828 0.0 1.008
756 opls_156 28 MF H022 829 0.0 1.008
757 opls_910 28 MF H31 830 0.0 1.008
758 A 28 MF A3 831 0.0 72.06679999999997
759 opls_902 28 MF N13 832 -0.407483 14.0067
760 opls_145 28 MF C13 833 0.682492 12.011
761 opls_901 28 MF N23 834 -0.299758 14.0067
762 opls_157 28 MF C3 835 0.024689 12.011
763 opls_154 28 MF O3 836 0.0 15.9994
764 opls_155 28 MF H03 837 0.0 1.008
765 opls_156 28 MF H031 838 0.0 1.008
766 opls_156 28 MF H032 839 0.0 1.008
767 opls_910 28 MF H11 840 0.0 1.008
768 A 29 MF A1 841 0.0 72.06679999999997
769 opls_902 29 MF N11 842 -0.407377 14.0067
770 opls_145 29 MF C11 843 0.682493 12.011
771 opls_901 29 MF N21 844 -0.299731 14.0067
772 opls_157 29 MF C1 845 0.024669 12.011
773 opls_154 29 MF O1 846 0.0 15.9994
774 opls_156 29 MF H011 848 0.0 1.008
775 opls_156 29 MF H012 849 0.0 1.008
776 opls_910 29 MF H21 850 0.0 1.008
777 A 29 MF A2 851 0.0 72.06679999999997
778 opls_902 29 MF N12 852 -0.407374 14.0067
779 opls_145 29 MF C12 853 0.682437 12.011
780 opls_901 29 MF N22 854 -0.299729 14.0067
781 opls_157 29 MF C2 855 0.024672 12.011
782 opls_154 29 MF O2 856 0.0 15.9994
783 opls_156 29 MF H021 858 0.0 1.008
784 opls_156 29 MF H022 859 0.0 1.008
785 opls_910 29 MF H31 860 0.0 1.008
786 A 29 MF A3 861 0.0 72.06679999999997
787 opls_902 29 MF N13 862 -0.407483 14.0067
788 opls_145 29 MF C13 863 0.682492 12.011
789 opls_901 29 MF N23 864 -0.299758 14.0067
790 opls_157 29 MF C3 865 0.024689 12.011
791 opls_154 29 MF O3 866 0.0 15.9994
792 opls_156 29 MF H031 868 0.0 1.008
793 opls_156 29 MF H032 869 0.0 1.008
794 opls_910 29 MF H11 870 0.0 1.008
795 A 30 MF A1 871 0.0 72.06679999999997
796 opls_902 30 MF N11 872 -0.407377 14.0067
797 opls_145 30 MF C11 873 0.682493 12.011
798 opls_901 30 MF N21 874 -0.299731 14.0067
799 opls_157 30 MF C1 875 0.024669 12.011
800 opls_156 30 MF H011 878 0.0 1.008
801 opls_156 30 MF H012 879 0.0 1.008
802 opls_910 30 MF H21 880 0.0 1.008
803 A 30 MF A2 881 0.0 72.06679999999997
804 opls_902 30 MF N12 882 -0.407374 14.0067
805 opls_145 30 MF C12 883 0.682437 12.011
806 opls_901 30 MF N22 884 -0.299729 14.0067
807 opls_157 30 MF C2 885 0.024672 12.011
808 opls_154 30 MF O2 886 0.0 15.9994
809 opls_156 30 MF H021 888 0.0 1.008
810 opls_156 30 MF H022 889 0.0 1.008
811 opls_910 30 MF H31 890 0.0 1.008
812 A 30 MF A3 891 0.0 72.06679999999997
813 opls_902 30 MF N13 892 -0.407483 14.0067
814 opls_145 30 MF C13 893 0.682492 12.011
815 opls_901 30 MF N23 894 -0.299758 14.0067
816 opls_157 30 MF C3 895 0.024689 12.011
817 opls_154 30 MF O3 896 0.0 15.9994
818 opls_156 30 MF H031 898 0.0 1.008
819 opls_156 30 MF H032 899 0.0 1.008
820 opls_910 30 MF H11 900 0.0 1.008
821 A 31 MF A1 901 0.0 72.06679999999997
822 opls_902 31 MF N11 902 -0.407377 14.0067
823 opls_145 31 MF C11 903 0.682493 12.011
824 opls_901 31 MF N21 904 -0.299731 14.0067
825 opls_157 31 MF C1 905 0.024669 12.011
826 opls_154 31 MF O1 906 0.0 15.9994
827 opls_156 31 MF H011 908 0.0 1.008
828 opls_156 31 MF H012 909 0.0 1.008
829 opls_910 31 MF H21 910 0.0 1.008
830 A 31 MF A2 911 0.0 72.06679999999997
831 opls_902 31 MF N12 912 -0.407374 14.0067
832 opls_145 31 MF C12 913 0.682437 12.011
833 opls_901 31 MF N22 914 -0.299729 14.0067
834 opls_157 31 MF C2 915 0.024672 12.011
835 opls_154 31 MF O2 916 0.0 15.9994
836 opls_156 31 MF H021 918 0.0 1.008
837 opls_156 31 MF H022 919 0.0 1.008
838 opls_910 31 MF H31 920 0.0 1.008
839 A 31 MF A3 921 0.0 72.06679999999997
840 opls_902 31 MF N13 922 -0.407483 14.0067
841 opls_145 31 MF C13 923 0.682492 12.011
842 opls_901 31 MF N23 924 -0.299758 14.0067
843 opls_157 31 MF C3 925 0.024689 12.011
844 opls_154 31 MF O3 926 0.0 15.9994
845 opls_156 31 MF H031 928 0.0 1.008
846 opls_156 31 MF H032 929 0.0 1.008
847 opls_910 31 MF H11 930 0.0 1.008
848 A 32 MF A1 931 0.0 72.06679999999997
849 opls_902 32 MF N11 932 -0.407377 14.0067
850 opls_145 32 MF C11 933 0.682493 12.011
851 opls_901 32 MF N21 934 -0.299731 14.0067
852 opls_157 32 MF C1 935 0.024669 12.011
853 opls_154 32 MF O1 936 0.0 15.9994
854 opls_156 32 MF H011 938 0.0 1.008
855 opls_156 32 MF H012 939 0.0 1.008
856 opls_910 32 MF H21 940 0.0 1.008
857 A 32 MF A2 941 0.0 72.06679999999997
858 opls_902 32 MF N12 942 -0.407374 14.0067
859 opls_145 32 MF C12 943 0.682437 12.011
860 opls_901 32 MF N22 944 -0.299729 14.0067
861 opls_157 32 MF C2 945 0.024672 12.011
862 opls_154 32 MF O2 946 0.0 15.9994
863 opls_156 32 MF H021 948 0.0 1.008
864 opls_156 32 MF H022 949 0.0 1.008
865 opls_910 32 MF H31 950 0.0 1.008
866 A 32 MF A3 951 0.0 72.06679999999997
867 opls_902 32 MF N13 952 -0.407483 14.0067
868 opls_145 32 MF C13 953 0.682492 12.011
869 opls_901 32 MF N23 954 -0.299758 14.0067
870 opls_157 32 MF C3 955 0.024689 12.011
871 opls_154 32 MF O3 956 0.0 15.9994
872 opls_156 32 MF H031 958 0.0 1.008
873 opls_156 32 MF H032 959 0.0 1.008
874 opls_910 32 MF H11 960 0.0 1.008
875 A 33 MF A1 961 0.0 72.06679999999997
876 opls_902 33 MF N11 962 -0.407377 14.0067
877 opls_145 33 MF C11 963 0.682493 12.011
878 opls_901 33 MF N21 964 -0.299731 14.0067
879 opls_157 33 MF C1 965 0.024669 12.011
880 opls_156 33 MF H011 968 0.0 1.008
881 opls_156 33 MF H012 969 0.0 1.008
882 opls_910 33 MF H21 970 0.0 1.008
883 A 33 MF A2 971 0.0 72.06679999999997
884 opls_902 33 MF N12 972 -0.407374 14.0067
885 opls_145 33 MF C12 973 0.682437 12.011
886 opls_901 33 MF N22 974 -0.299729 14.0067
887 opls_157 33 MF C2 975 0.024672 12.011
888 opls_154 33 MF O2 976 0.0 15.9994
889 opls_156 33 MF H021 978 0.0 1.008
890 opls_156 33 MF H022 979 0.0 1.008
891 opls_910 33 MF H31 980 0.0 1.008
892 A 33 MF A3 981 0.0 72.06679999999997
893 opls_902 33 MF N13 982 -0.407483 14.0067
894 opls_145 33 MF C13 983 0.682492 12.011
895 opls_901 33 MF N23 984 -0.299758 14.0067
896 opls_157 33 MF C3 985 0.024689 12.011
897 opls_154 33 MF O3 986 0.0 15.9994
898 opls_155 33 MF H03 987 0.0 1.008
899 opls_156 33 MF H031 988 0.0 1.008
900 opls_156 33 MF H032 989 0.0 1.008
901 opls_910 33 MF H11 990 0.0 1.008
902 A 34 MF A1 991 0.0 72.06679999999997
903 opls_902 34 MF N11 992 -0.407377 14.0067
904 opls_145 34 MF C11 993 0.682493 12.011
905 opls_901 34 MF N21 994 -0.299731 14.0067
906 opls_157 34 MF C1 995 0.024669 12.011
907 opls_154 34 MF O1 996 0.0 15.9994
908 opls_156 34 MF H011 998 0.0 1.008
909 opls_156 34 MF H012 999 0.0 1.008
910 opls_910 34 MF H21 1000 0.0 1.008
911 A 34 MF A2 1001 0.0 72.06679999999997
912 opls_902 34 MF N12 1002 -0.407374 14.0067
913 opls_145 34 MF C12 1003 0.682437 12.011
914 opls_901 34 MF N22 1004 -0.299729 14.0067
915 opls_157 34 MF C2 1005 0.024672 12.011
916 opls_154 34 MF O2 1006 0.0 15.9994
917 opls_156 34 MF H021 1008 0.0 1.008
918 opls_156 34 MF H022 1009 0.0 1.008
919 opls_910 34 MF H31 1010 0.0 1.008
920 A 34 MF A3 1011 0.0 72.06679999999997
921 opls_902 34 MF N13 1012 -0.407483 14.0067
922 opls_145 34 MF C13 1013 0.682492 12.011
923 opls_901 34 MF N23 1014 -0.299758 14.0067
924 opls_157 34 MF C3 1015 0.024689 12.011
925 opls_154 34 MF O3 1016 0.0 15.9994
926 opls_156 34 MF H031 1018 0.0 1.008
927 opls_156 34 MF H032 1019 0.0 1.008
928 opls_910 34 MF H11 1020 0.0 1.008
929 A 35 MF A1 1021 0.0 72.06679999999997
930 opls_902 35 MF N11 1022 -0.407377 14.0067
931 opls_145 35 MF C11 1023 0.682493 12.011
932 opls_901 35 MF N21 1024 -0.299731 14.0067
933 opls_157 35 MF C1 1025 0.024669 12.011
934 opls_154 35 MF O1 1026 0.0 15.9994
935 opls_156 35 MF H011 1028 0.0 1.008
936 opls_156 35 MF H012 1029 0.0 1.008
937 opls_910 35 MF H21 1030 0.0 1.008
938 A 35 MF A2 1031 0.0 72.06679999999997
939 opls_902 35 MF N12 1032 -0.407374 14.0067
940 opls_145 35 MF C12 1033 0.682437 12.011
941 opls_901 35 MF N22 1034 -0.299729 14.0067
942 opls_157 35 MF C2 1035 0.024672 12.011
943 opls_154 35 MF O2 1036 0.0 15.9994
944 opls_156 35 MF H021 1038 0.0 1.008
945 opls_156 35 MF H022 1039 0.0 1.008
946 opls_910 35 MF H31 1040 0.0 1.008
947 A 35 MF A3 1041 0.0 72.06679999999997
948 opls_902 35 MF N13 1042 -0.407483 14.0067
949 opls_145 35 MF C13 1043 0.682492 12.011
950 opls_901 35 MF N23 1044 -0.299758 14.0067
951 opls_157 35 MF C3 1045 0.024689 12.011
952 opls_154 35 MF O3 1046 0.0 15.9994
953 opls_156 35 MF H031 1048 0.0 1.008
954 opls_156 35 MF H032 1049 0.0 1.008
955 opls_910 35 MF H11 1050 0.0 1.008
956 A 36 MF A1 1051 0.0 72.06679999999997
957 opls_902 36 MF N11 1052 -0.407377 14.0067
958 opls_145 36 MF C11 1053 0.682493 12.011
959 opls_901 36 MF N21 1054 -0.299731 14.0067
960 opls_157 36 MF C1 1055 0.024669 12.011
961 opls_154 36 MF O1 1056 0.0 15.9994
962 opls_156 36 MF H011 1058 0.0 1.008
963 opls_156 36 MF H012 1059 0.0 1.008
964 opls_910 36 MF H21 1060 0.0 1.008
965 A 36 MF A2 1061 0.0 72.06679999999997
966 opls_902 36 MF N12 1062 -0.407374 14.0067
967 opls_145 36 MF C12 1063 0.682437 12.011
968 opls_901 36 MF N22 1064 -0.299729 14.0067
969 opls_157 36 MF C2 1065 0.024672 12.011
970 opls_154 36 MF O2 1066 0.0 15.9994
971 opls_155 36 MF H02 1067 0.0 1.008
972 opls_156 36 MF H021 1068 0.0 1.008
973 opls_156 36 MF H022 1069 0.0 1.008
974 opls_910 36 MF H31 1070 0.0 1.008
975 A 36 MF A3 1071 0.0 72.06679999999997
976 opls_902 36 MF N13 1072 -0.407483 14.0067
977 opls_145 36 MF C13 1073 0.682492 12.011
978 opls_901 36 MF N23 1074 -0.299758 14.0067
979 opls_157 36 MF C3 1075 0.024689 12.011
980 opls_154 36 MF O3 1076 0.0 15.9994
981 opls_155 36 MF H03 1077 0.0 1.008
982 opls_156 36 MF H031 1078 0.0 1.008
983 opls_156 36 MF H032 1079 0.0 1.008
984 opls_910 36 MF H11 1080 0.0 1.008
985 A 37 MF A1 1081 0.0 72.06679999999997
986 opls_902 37 MF N11 1082 -0.407377 14.0067
987 opls_145 37 MF C11 1083 0.682493 12.011
988 opls_901 37 MF N21 1084 -0.299731 14.0067
989 opls_157 37 MF C1 1085 0.024669 12.011
990 opls_154 37 MF O1 1086 0.0 15.9994
991 opls_155 37 MF H01 1087 0.0 1.008
992 opls_156 37 MF H011 1088 0.0 1.008
993 opls_156 37 MF H012 1089 0.0 1.008
994 opls_910 37 MF H21 1090 0.0 1.008
995 A 37 MF A2 1091 0.0 72.06679999999997
996 opls_902 37 MF N12 1092 -0.407374 14.0067
997 opls_145 37 MF C12 1093 0.682437 12.011
998 opls_901 37 MF N22 1094 -0.299729 14.0067
999 opls_157 37 MF C2 1095 0.024672 12.011
1000 opls_154 37 MF O2 1096 0.0 15.9994
1001 opls_156 37 MF H021 1098 0.0 1.008
1002 opls_156 37 MF H022 1099 0.0 1.008
1003 opls_910 37 MF H31 1100 0.0 1.008
1004 A 37 MF A3 1101 0.0 72.06679999999997
1005 opls_902 37 MF N13 1102 -0.407483 14.0067
1006 opls_145 37 MF C13 1103 0.682492 12.011
1007 opls_901 37 MF N23 1104 -0.299758 14.0067
1008 opls_157 37 MF C3 1105 0.024689 12.011
1009 opls_154 37 MF O3 1106 0.0 15.9994
1010 opls_156 37 MF H031 1108 0.0 1.008
1011 opls_156 37 MF H032 1109 0.0 1.008
1012 opls_910 37 MF H11 1110 0.0 1.008
1013 A 38 MF A1 1111 0.0 72.06679999999997
1014 opls_902 38 MF N11 1112 -0.407377 14.0067
1015 opls_145 38 MF C11 1113 0.682493 12.011
1016 opls_901 38 MF N21 1114 -0.299731 14.0067
1017 opls_157 38 MF C1 1115 0.024669 12.011
1018 opls_154 38 MF O1 1116 0.0 15.9994
1019 opls_156 38 MF H011 1118 0.0 1.008
1020 opls_156 38 MF H012 1119 0.0 1.008
1021 opls_910 38 MF H21 1120 0.0 1.008
1022 A 38 MF A2 1121 0.0 72.06679999999997
1023 opls_902 38 MF N12 1122 -0.407374 14.0067
1024 opls_145 38 MF C12 1123 0.682437 12.011
1025 opls_901 38 MF N22 1124 -0.299729 14.0067
1026 opls_157 38 MF C2 1125 0.024672 12.011
1027 opls_154 38 MF O2 1126 0.0 15.9994
1028 opls_156 38 MF H021 1128 0.0 1.008
1029 opls_156 38 MF H022 1129 0.0 1.008
1030 opls_910 38 MF H31 1130 0.0 1.008
1031 A 38 MF A3 1131 0.0 72.06679999999997
1032 opls_902 38 MF N13 1132 -0.407483 14.0067
1033 opls_145 38 MF C13 1133 0.682492 12.011
1034 opls_901 38 MF N23 1134 -0.299758 14.0067
1035 opls_157 38 MF C3 1135 0.024689 12.011
1036 opls_154 38 MF O3 1136 0.0 15.9994
1037 opls_156 38 MF H031 1138 0.0 1.008
1038 opls_156 38 MF H032 1139 0.0 1.008
1039 opls_910 38 MF H11 1140 0.0 1.008
1040 A 39 MF A1 1141 0.0 72.06679999999997
1041 opls_902 39 MF N11 1142 -0.407377 14.0067
1042 opls_145 39 MF C11 1143 0.682493 12.011
1043 opls_901 39 MF N21 1144 -0.299731 14.0067
1044 opls_157 39 MF C1 1145 0.024669 12.011
1045 opls_154 39 MF O1 1146 0.0 15.9994
1046 opls_156 39 MF H011 1148 0.0 1.008
1047 opls_156 39 MF H012 1149 0.0 1.008
1048 opls_910 39 MF H21 1150 0.0 1.008
1049 A 39 MF A2 1151 0.0 72.06679999999997
1050 opls_902 39 MF N12 1152 -0.407374 14.0067
1051 opls_145 39 MF C12 1153 0.682437 12.011
1052 opls_901 39 MF N22 1154 -0.299729 14.0067
1053 opls_157 39 MF C2 1155 0.024672 12.011
1054 opls_154 39 MF O2 1156 0.0 15.9994
1055 opls_156 39 MF H021 1158 0.0 1.008
1056 opls_156 39 MF H022 1159 0.0 1.008
1057 opls_910 39 MF H31 1160 0.0 1.008
1058 A 39 MF A3 1161 0.0 72.06679999999997
1059 opls_902 39 MF N13 1162 -0.407483 14.0067
1060 opls_145 39 MF C13 1163 0.682492 12.011
1061 opls_901 39 MF N23 1164 -0.299758 14.0067
1062 opls_157 39 MF C3 1165 0.024689 12.011
1063 opls_154 39 MF O3 1166 0.0 15.9994
1064 opls_156 39 MF H031 1168 0.0 1.008
1065 opls_156 39 MF H032 1169 0.0 1.008
1066 opls_910 39 MF H11 1170 0.0 1.008
1067 A 40 MF A1 1171 0.0 72.06679999999997
1068 opls_902 40 MF N11 1172 -0.407377 14.0067
1069 opls_145 40 MF C11 1173 0.682493 12.011
1070 opls_901 40 MF N21 1174 -0.299731 14.0067
1071 opls_157 40 MF C1 1175 0.024669 12.011
1072 opls_154 40 MF O1 1176 0.0 15.9994
1073 opls_155 40 MF H01 1177 0.0 1.008
1074 opls_156 40 MF H011 1178 0.0 1.008
1075 opls_156 40 MF H012 1179 0.0 1.008
1076 opls_910 40 MF H21 1180 0.0 1.008
1077 A 40 MF A2 1181 0.0 72.06679999999997
1078 opls_902 40 MF N12 1182 -0.407374 14.0067
1079 opls_145 40 MF C12 1183 0.682437 12.011
1080 opls_901 40 MF N22 1184 -0.299729 14.0067
1081 opls_157 40 MF C2 1185 0.024672 12.011
1082 opls_154 40 MF O2 1186 0.0 15.9994
1083 opls_156 40 MF H021 1188 0.0 1.008
1084 opls_156 40 MF H022 1189 0.0 1.008
1085 opls_910 40 MF H31 1190 0.0 1.008
1086 A 40 MF A3 1191 0.0 72.06679999999997
1087 opls_902 40 MF N13 1192 -0.407483 14.0067
1088 opls_145 40 MF C13 1193 0.682492 12.011
1089 opls_901 40 MF N23 1194 -0.299758 14.0067
1090 opls_157 40 MF C3 1195 0.024689 12.011
1091 opls_154 40 MF O3 1196 0.0 15.9994
1092 opls_155 40 MF H03 1197 0.0 1.008
1093 opls_156 40 MF H031 1198 0.0 1.008
1094 opls_156 40 MF H032 1199 0.0 1.008
1095 opls_910 40 MF H11 1200 0.0 1.008
1096 A 41 MF A1 1201 0.0 72.06679999999997
1097 opls_902 41 MF N11 1202 -0.407377 14.0067
1098 opls_145 41 MF C11 1203 0.682493 12.011
1099 opls_901 41 MF N21 1204 -0.299731 14.0067
1100 opls_157 41 MF C1 1205 0.024669 12.011
1101 opls_154 41 MF O1 1206 0.0 15.9994
1102 opls_156 41 MF H011 1208 0.0 1.008
1103 opls_156 41 MF H012 1209 0.0 1.008
1104 opls_910 41 MF H21 1210 0.0 1.008
1105 A 41 MF A2 1211 0.0 72.06679999999997
1106 opls_902 41 MF N12 1212 -0.407374 14.0067
1107 opls_145 41 MF C12 1213 0.682437 12.011
1108 opls_901 41 MF N22 1214 -0.299729 14.0067
1109 opls_157 41 MF C2 1215 0.024672 12.011
1110 opls_156 41 MF H021 1218 0.0 1.008
1111 opls_156 41 MF H022 1219 0.0 1.008
1112 opls_910 41 MF H31 1220 0.0 1.008
1113 A 41 MF A3 1221 0.0 72.06679999999997
1114 opls_902 41 MF N13 1222 -0.407483 14.0067
1115 opls_145 41 MF C13 1223 0.682492 12.011
1116 opls_901 41 MF N23 1224 -0.299758 14.0067
1117 opls_157 41 MF C3 1225 0.024689 12.011
1118 opls_154 41 MF O3 1226 0.0 15.9994
1119 opls_156 41 MF H031 1228 0.0 1.008
1120 opls_156 41 MF H032 1229 0.0 1.008
1121 opls_910 41 MF H11 1230 0.0 1.008
1122 A 42 MF A1 1231 0.0 72.06679999999997
1123 opls_902 42 MF N11 1232 -0.407377 14.0067
1124 opls_145 42 MF C11 1233 0.682493 12.011
1125 opls_901 42 MF N21 1234 -0.299731 14.0067
1126 opls_157 42 MF C1 1235 0.024669 12.011
1127 opls_154 42 MF O1 1236 0.0 15.9994
1128 opls_156 42 MF H011 1238 0.0 1.008
1129 opls_156 42 MF H012 1239 0.0 1.008
1130 opls_910 42 MF H21 1240 0.0 1.008
1131 A 42 MF A2 1241 0.0 72.06679999999997
1132 opls_902 42 MF N12 1242 -0.407374 14.0067
1133 opls_145 42 MF C12 1243 0.682437 12.011
1134 opls_901 42 MF N22 1244 -0.299729 14.0067
1135 opls_157 42 MF C2 1245 0.024672 12.011
1136 opls_154 42 MF O2 1246 0.0 15.9994
1137 opls_156 42 MF H021 1248 0.0 1.008
1138 opls_156 42 MF H022 1249 0.0 1.008
1139 opls_910 42 MF H31 1250 0.0 1.008
1140 A 42 MF A3 1251 0.0 72.06679999999997
1141 opls_902 42 MF N13 1252 -0.407483 14.0067
1142 opls_145 42 MF C13 1253 0.682492 12.011
1143 opls_901 42 MF N23 1254 -0.299758 14.0067
1144 opls_157 42 MF C3 1255 0.024689 12.011
1145 opls_154 42 MF O3 1256 0.0 15.9994
1146 opls_156 42 MF H031 1258 0.0 1.008
1147 opls_156 42 MF H032 1259 0.0 1.008
1148 opls_910 42 MF H11 1260 0.0 1.008
1149 A 43 MF A1 1261 0.0 72.06679999999997
1150 opls_902 43 MF N11 1262 -0.407377 14.0067
1151 opls_145 43 MF C11 1263 0.682493 12.011
1152 opls_901 43 MF N21 1264 -0.299731 14.0067
1153 opls_157 43 MF C1 1265 0.024669 12.011
1154 opls_154 43 MF O1 1266 0.0 15.9994
1155 opls_156 43 MF H011 1268 0.0 1.008
1156 opls_156 43 MF H012 1269 0.0 1.008
1157 opls_910 43 MF H21 1270 0.0 1.008
1158 A 43 MF A2 1271 0.0 72.06679999999997
1159 opls_902 43 MF N12 1272 -0.407374 14.0067
1160 opls_145 43 MF C12 1273 0.682437 12.011
1161 opls_901 43 MF N22 1274 -0.299729 14.0067
1162 opls_157 43 MF C2 1275 0.024672 12.011
1163 opls_154 43 MF O2 1276 0.0 15.9994
1164 opls_156 43 MF H021 1278 0.0 1.008
1165 opls_156 43 MF H022 1279 0.0 1.008
1166 opls_910 43 MF H31 1280 0.0 1.008
1167 A 43 MF A3 1281 0.0 72.06679999999997
1168 opls_902 43 MF N13 1282 -0.407483 14.0067
1169 opls_145 43 MF C13 1283 0.682492 12.011
1170 opls_901 43 MF N23 1284 -0.299758 14.0067
1171 opls_157 43 MF C3 1285 0.024689 12.011
1172 opls_154 43 MF O3 1286 0.0 15.9994
1173 opls_156 43 MF H031 1288 0.0 1.008
1174 opls_156 43 MF H032 1289 0.0 1.008
1175 opls_910 43 MF H11 1290 0.0 1.008
1176 A 44 MF A1 1291 0.0 72.06679999999997
1177 opls_902 44 MF N11 1292 -0.407377 14.0067
1178 opls_145 44 MF C11 1293 0.682493 12.011
1179 opls_901 44 MF N21 1294 -0.299731 14.0067
1180 opls_157 44 MF C1 1295 0.024669 12.011
1181 opls_154 44 MF O1 1296 0.0 15.9994
1182 opls_156 44 MF H011 1298 0.0 1.008
1183 opls_156 44 MF H012 1299 0.0 1.008
1184 opls_910 44 MF H21 1300 0.0 1.008
1185 A 44 MF A2 1301 0.0 72.06679999999997
1186 opls_902 44 MF N12 1302 -0.407374 14.0067
1187 opls_145 44 MF C12 1303 0.682437 12.011
1188 opls_901 44 MF N22 1304 -0.299729 14.0067
1189 opls_157 44 MF C2 1305 0.024672 12.011
1190 opls_154 44 MF O2 1306 0.0 15.9994
1191 opls_156 44 MF H021 1308 0.0 1.008
1192 opls_156 44 MF H022 1309 0.0 1.008
1193 opls_910 44 MF H31 1310 0.0 1.008
1194 A 44 MF A3 1311 0.0 72.06679999999997
1195 opls_902 44 MF N13 1312 -0.407483 14.0067
1196 opls_145 44 MF C13 1313 0.682492 12.011
1197 opls_901 44 MF N23 1314 -0.299758 14.0067
1198 opls_157 44 MF C3 1315 0.024689 12.011
1199 opls_154 44 MF O3 1316 0.0 15.9994
1200 opls_156 44 MF H031 1318 0.0 1.008
1201 opls_156 44 MF H032 1319 0.0 1.008
1202 opls_910 44 MF H11 1320 0.0 1.008
1203 A 45 MF A1 1321 0.0 72.06679999999997
1204 opls_902 45 MF N11 1322 -0.407377 14.0067
1205 opls_145 45 MF C11 1323 0.682493 12.011
1206 opls_901 45 MF N21 1324 -0.299731 14.0067
1207 opls_157 45 MF C1 1325 0.024669 12.011
1208 opls_156 45 MF H011 1328 0.0 1.008
1209 opls_156 45 MF H012 1329 0.0 1.008
1210 opls_910 45 MF H21 1330 0.0 1.008
1211 A 45 MF A2 1331 0.0 72.06679999999997
1212 opls_902 45 MF N12 1332 -0.407374 14.0067
1213 opls_145 45 MF C12 1333 0.682437 12.011
1214 opls_901 45 MF N22 1334 -0.299729 14.0067
1215 opls_157 45 MF C2 1335 0.024672 12.011
1216 opls_154 45 MF O2 1336 0.0 15.9994
1217 opls_156 45 MF H021 1338 0.0 1.008
1218 opls_156 45 MF H022 1339 0.0 1.008
1219 opls_910 45 MF H31 1340 0.0 1.008
1220 A 45 MF A3 1341 0.0 72.06679999999997
1221 opls_902 45 MF N13 1342 -0.407483 14.0067
1222 opls_145 45 MF C13 1343 0.682492 12.011
1223 opls_901 45 MF N23 1344 -0.299758 14.0067
1224 opls_157 45 MF C3 1345 0.024689 12.011
1225 opls_154 45 MF O3 1346 0.0 15.9994
1226 opls_156 45 MF H031 1348 0.0 1.008
1227 opls_156 45 MF H032 1349 0.0 1.008
1228 opls_910 45 MF H11 1350 0.0 1.008
1229 A 46 MF A1 1351 0.0 72.06679999999997
1230 opls_902 46 MF N11 1352 -0.407377 14.0067
1231 opls_145 46 MF C11 1353 0.682493 12.011
1232 opls_901 46 MF N21 1354 -0.299731 14.0067
1233 opls_157 46 MF C1 1355 0.024669 12.011
1234 opls_154 46 MF O1 1356 0.0 15.9994
1235 opls_156 46 MF H011 1358 0.0 1.008
1236 opls_156 46 MF H012 1359 0.0 1.008
1237 opls_910 46 MF H21 1360 0.0 1.008
1238 A 46 MF A2 1361 0.0 72.06679999999997
1239 opls_902 46 MF N12 1362 -0.407374 14.0067
1240 opls_145 46 MF C12 1363 0.682437 12.011
1241 opls_901 46 MF N22 1364 -0.299729 14.0067
1242 opls_157 46 MF C2 1365 0.024672 12.011
1243 opls_154 46 MF O2 1366 0.0 15.9994
1244 opls_156 46 MF H021 1368 0.0 1.008
1245 opls_156 46 MF H022 1369 0.0 1.008
1246 opls_910 46 MF H31 1370 0.0 1.008
1247 A 46 MF A3 1371 0.0 72.06679999999997
1248 opls_902 46 MF N13 1372 -0.407483 14.0067
1249 opls_145 46 MF C13 1373 0.682492 12.011
1250 opls_901 46 MF N23 1374 -0.299758 14.0067
1251 opls_157 46 MF C3 1375 0.024689 12.011
1252 opls_154 46 MF O3 1376 0.0 15.9994
1253 opls_156 46 MF H031 1378 0.0 1.008
1254 opls_156 46 MF H032 1379 0.0 1.008
1255 opls_910 46 MF H11 1380 0.0 1.008
1256 A 47 MF A1 1381 0.0 72.06679999999997
1257 opls_902 47 MF N11 1382 -0.407377 14.0067
1258 opls_145 47 MF C11 1383 0.682493 12.011
1259 opls_901 47 MF N21 1384 -0.299731 14.0067
1260 opls_157 47 MF C1 1385 0.024669 12.011
1261 opls_156 47 MF H011 1388 0.0 1.008
1262 opls_156 47 MF H012 1389 0.0 1.008
1263 opls_910 47 MF H21 1390 0.0 1.008
1264 A 47 MF A2 1391 0.0 72.06679999999997
1265 opls_902 47 MF N12 1392 -0.407374 14.0067
1266 opls_145 47 MF C12 1393 0.682437 12.011
1267 opls_901 47 MF N22 1394 -0.299729 14.0067
1268 opls_157 47 MF C2 1395 0.024672 12.011
1269 opls_154 47 MF O2 1396 0.0 15.9994
1270 opls_156 47 MF H021 1398 0.0 1.008
1271 opls_156 47 MF H022 1399 0.0 1.008
1272 opls_910 47 MF H31 1400 0.0 1.008
1273 A 47 MF A3 1401 0.0 72.06679999999997
1274 opls_902 47 MF N13 1402 -0.407483 14.0067
1275 opls_145 47 MF C13 1403 0.682492 12.011
1276 opls_901 47 MF N23 1404 -0.299758 14.0067
1277 opls_157 47 MF C3 1405 0.024689 12.011
1278 opls_154 47 MF O3 1406 0.0 15.9994
1279 opls_155 47 MF H03 1407 0.0 1.008
1280 opls_156 47 MF H031 1408 0.0 1.008
1281 opls_156 47 MF H032 1409 0.0 1.008
1282 opls_910 47 MF H11 1410 0.0 1.008
1283 A 48 MF A1 1411 0.0 72.06679999999997
1284 opls_902 48 MF N11 1412 -0.407377 14.0067
1285 opls_145 48 MF C11 1413 0.682493 12.011
1286 opls_901 48 MF N21 1414 -0.299731 14.0067
1287 opls_157 48 MF C1 1415 0.024669 12.011
1288 opls_154 48 MF O1 1416 0.0 15.9994
1289 opls_156 48 MF H011 1418 0.0 1.008
1290 opls_156 48 MF H012 1419 0.0 1.008
1291 opls_910 48 MF H21 1420 0.0 1.008
1292 A 48 MF A2 1421 0.0 72.06679999999997
1293 opls_902 48 MF N12 1422 -0.407374 14.0067
1294 opls_145 48 MF C12 1423 0.682437 12.011
1295 opls_901 48 MF N22 1424 -0.299729 14.0067
1296 opls_157 48 MF C2 1425 0.024672 12.011
1297 opls_154 48 MF O2 1426 0.0 15.9994
1298 opls_156 48 MF H021 1428 0.0 1.008
1299 opls_156 48 MF H022 1429 0.0 1.008
1300 opls_910 48 MF H31 1430 0.0 1.008
1301 A 48 MF A3 1431 0.0 72.06679999999997
1302 opls_902 48 MF N13 1432 -0.407483 14.0067
1303 opls_145 48 MF C13 1433 0.682492 12.011
1304 opls_901 48 MF N23 1434 -0.299758 14.0067
1305 opls_157 48 MF C3 1435 0.024689 12.011
1306 opls_154 48 MF O3 1436 0.0 15.9994
1307 opls_156 48 MF H031 1438 0.0 1.008
1308 opls_156 48 MF H032 1439 0.0 1.008
1309 opls_910 48 MF H11 1440 0.0 1.008
1310 A 49 MF A1 1441 0.0 72.06679999999997
1311 opls_902 49 MF N11 1442 -0.407377 14.0067
1312 opls_145 49 MF C11 1443 0.682493 12.011
1313 opls_901 49 MF N21 1444 -0.299731 14.0067
1314 opls_157 49 MF C1 1445 0.024669 12.011
1315 opls_154 49 MF O1 1446 0.0 15.9994
1316 opls_156 49 MF H011 1448 0.0 1.008
1317 opls_156 49 MF H012 1449 0.0 1.008
1318 opls_910 49 MF H21 1450 0.0 1.008
1319 A 49 MF A2 1451 0.0 72.06679999999997
1320 opls_902 49 MF N12 1452 -0.407374 14.0067
1321 opls_145 49 MF C12 1453 0.682437 12.011
1322 opls_901 49 MF N22 1454 -0.299729 14.0067
1323 opls_157 49 MF C2 1455 0.024672 12.011
1324 opls_154 49 MF O2 1456 0.0 15.9994
1325 opls_156 49 MF H021 1458 0.0 1.008
1326 opls_156 49 MF H022 1459 0.0 1.008
1327 opls_910 49 MF H31 1460 0.0 1.008
1328 A 49 MF A3 1461 0.0 72.06679999999997
1329 opls_902 49 MF N13 1462 -0.407483 14.0067
1330 opls_145 49 MF C13 1463 0.682492 12.011
1331 opls_901 49 MF N23 1464 -0.299758 14.0067
1332 opls_157 49 MF C3 1465 0.024689 12.011
1333 opls_154 49 MF O3 1466 0.0 15.9994
1334 opls_156 49 MF H031 1468 0.0 1.008
1335 opls_156 49 MF H032 1469 0.0 1.008
1336 opls_910 49 MF H11 1470 0.0 1.008
1337 A 50 MF A1 1471 0.0 72.06679999999997
1338 opls_902 50 MF N11 1472 -0.407377 14.0067
1339 opls_145 50 MF C11 1473 0.682493 12.011
1340 opls_901 50 MF N21 1474 -0.299731 14.0067
1341 opls_157 50 MF C1 1475 0.024669 12.011
1342 opls_154 50 MF O1 1476 0.0 15.9994
1343 opls_156 50 MF H011 1478 0.0 1.008
1344 opls_156 50 MF H012 1479 0.0 1.008
1345 opls_910 50 MF H21 1480 0.0 1.008
1346 A 50 MF A2 1481 0.0 72.06679999999997
1347 opls_902 50 MF N12 1482 -0.407374 14.0067
1348 opls_145 50 MF C12 1483 0.682437 12.011
1349 opls_901 50 MF N22 1484 -0.299729 14.0067
1350 opls_157 50 MF C2 1485 0.024672 12.011
1351 opls_154 50 MF O2 1486 0.0 15.9994
1352 opls_156 50 MF H021 1488 0.0 1.008
1353 opls_156 50 MF H022 1489 0.0 1.008
1354 opls_910 50 MF H31 1490 0.0 1.008
1355 A 50 MF A3 1491 0.0 72.06679999999997
1356 opls_902 50 MF N13 1492 -0.407483 14.0067
1357 opls_145 50 MF C13 1493 0.682492 12.011
1358 opls_901 50 MF N23 1494 -0.299758 14.0067
1359 opls_157 50 MF C3 1495 0.024689 12.011
1360 opls_154 50 MF O3 1496 0.0 15.9994
1361 opls_155 50 MF H03 1497 0.0 1.008
1362 opls_156 50 MF H031 1498 0.0 1.008
1363 opls_156 50 MF H032 1499 0.0 1.008
1364 opls_910 50 MF H11 1500 0.0 1.008
1365 A 51 MF A1 1501 0.0 72.06679999999997
1366 opls_902 51 MF N11 1502 -0.407377 14.0067
1367 opls_145 51 MF C11 1503 0.682493 12.011
1368 opls_901 51 MF N21 1504 -0.299731 14.0067
1369 opls_157 51 MF C1 1505 0.024669 12.011
1370 opls_154 51 MF O1 1506 0.0 15.9994
1371 opls_156 51 MF H011 1508 0.0 1.008
1372 opls_156 51 MF H012 1509 0.0 1.008
1373 opls_910 51 MF H21 1510 0.0 1.008
1374 A 51 MF A2 1511 0.0 72.06679999999997
1375 opls_902 51 MF N12 1512 -0.407374 14.0067
1376 opls_145 51 MF C12 1513 0.682437 12.011
1377 opls_901 51 MF N22 1514 -0.299729 14.0067
1378 opls_157 51 MF C2 1515 0.024672 12.011
1379 opls_154 51 MF O2 1516 0.0 15.9994
1380 opls_156 51 MF H021 1518 0.0 1.008
1381 opls_156 51 MF H022 1519 0.0 1.008
1382 opls_910 51 MF H31 1520 0.0 1.008
1383 A 51 MF A3 1521 0.0 72.06679999999997
1384 opls_902 51 MF N13 1522 -0.407483 14.0067
1385 opls_145 51 MF C13 1523 0.682492 12.011
1386 opls_901 51 MF N23 1524 -0.299758 14.0067
1387 opls_157 51 MF C3 1525 0.024689 12.011
1388 opls_154 51 MF O3 1526 0.0 15.9994
1389 opls_156 51 MF H031 1528 0.0 1.008
1390 opls_156 51 MF H032 1529 0.0 1.008
1391 opls_910 51 MF H11 1530 0.0 1.008
1392 A 52 MF A1 1531 0.0 72.06679999999997
1393 opls_902 52 MF N11 1532 -0.407377 14.0067
1394 opls_145 52 MF C11 1533 0.682493 12.011
1395 opls_901 52 MF N21 1534 -0.299731 14.0067
1396 opls_157 52 MF C1 1535 0.024669 12.011
1397 opls_154 52 MF O1 1536 0.0 15.9994
1398 opls_156 52 MF H011 1538 0.0 1.008
1399 opls_156 52 MF H012 1539 0.0 1.008
1400 opls_910 52 MF H21 1540 0.0 1.008
1401 A 52 MF A2 1541 0.0 72.06679999999997
1402 opls_902 52 MF N12 1542 -0.407374 14.0067
1403 opls_145 52 MF C12 1543 0.682437 12.011
1404 opls_901 52 MF N22 1544 -0.299729 14.0067
1405 opls_157 52 MF C2 1545 0.024672 12.011
1406 opls_154 52 MF O2 1546 0.0 15.9994
1407 opls_155 52 MF H02 1547 0.0 1.008
1408 opls_156 52 MF H021 1548 0.0 1.008
1409 opls_156 52 MF H022 1549 0.0 1.008
1410 opls_910 52 MF H31 1550 0.0 1.008
1411 A 52 MF A3 1551 0.0 72.06679999999997
1412 opls_902 52 MF N13 1552 -0.407483 14.0067
1413 opls_145 52 MF C13 1553 0.682492 12.011
1414 opls_901 52 MF N23 1554 -0.299758 14.0067
1415 opls_157 52 MF C3 1555 0.024689 12.011
1416 opls_154 52 MF O3 1556 0.0 15.9994
1417 opls_156 52 MF H031 1558 0.0 1.008
1418 opls_156 52 MF H032 1559 0.0 1.008
1419 opls_910 52 MF H11 1560 0.0 1.008
1420 A 53 MF A1 1561 0.0 72.06679999999997
1421 opls_902 53 MF N11 1562 -0.407377 14.0067
1422 opls_145 53 MF C11 1563 0.682493 12.011
1423 opls_901 53 MF N21 1564 -0.299731 14.0067
1424 opls_157 53 MF C1 1565 0.024669 12.011
1425 opls_156 53 MF H011 1568 0.0 1.008
1426 opls_156 53 MF H012 1569 0.0 1.008
1427 opls_910 53 MF H21 1570 0.0 1.008
1428 A 53 MF A2 1571 0.0 72.06679999999997
1429 opls_902 53 MF N12 1572 -0.407374 14.0067
1430 opls_145 53 MF C12 1573 0.682437 12.011
1431 opls_901 53 MF N22 1574 -0.299729 14.0067
1432 opls_157 53 MF C2 1575 0.024672 12.011
1433 opls_154 53 MF O2 1576 0.0 15.9994
1434 opls_156 53 MF H021 1578 0.0 1.008
1435 opls_156 53 MF H022 1579 0.0 1.008
1436 opls_910 53 MF H31 1580 0.0 1.008
1437 A 53 MF A3 1581 0.0 72.06679999999997
1438 opls_902 53 MF N13 1582 -0.407483 14.0067
1439 opls_145 53 MF C13 1583 0.682492 12.011
1440 opls_901 53 MF N23 1584 -0.299758 14.0067
1441 opls_157 53 MF C3 1585 0.024689 12.011
1442 opls_154 53 MF O3 1586 0.0 15.9994
1443 opls_156 53 MF H031 1588 0.0 1.008
1444 opls_156 53 MF H032 1589 0.0 1.008
1445 opls_910 53 MF H11 1590 0.0 1.008
1446 A 54 MF A1 1591 0.0 72.06679999999997
1447 opls_902 54 MF N11 1592 -0.407377 14.0067
1448 opls_145 54 MF C11 1593 0.682493 12.011
1449 opls_901 54 MF N21 1594 -0.299731 14.0067
1450 opls_157 54 MF C1 1595 0.024669 12.011
1451 opls_154 54 MF O1 1596 0.0 15.9994
1452 opls_156 54 MF H011 1598 0.0 1.008
1453 opls_156 54 MF H012 1599 0.0 1.008
1454 opls_910 54 MF H21 1600 0.0 1.008
1455 A 54 MF A2 1601 0.0 72.06679999999997
1456 opls_902 54 MF N12 1602 -0.407374 14.0067
1457 opls_145 54 MF C12 1603 0.682437 12.011
1458 opls_901 54 MF N22 1604 -0.299729 14.0067
1459 opls_157 54 MF C2 1605 0.024672 12.011
1460 opls_154 54 MF O2 1606 0.0 15.9994
1461 opls_156 54 MF H021 1608 0.0 1.008
1462 opls_156 54 MF H022 1609 0.0 1.008
1463 opls_910 54 MF H31 1610 0.0 1.008
1464 A 54 MF A3 1611 0.0 72.06679999999997
1465 opls_902 54 MF N13 1612 -0.407483 14.0067
1466 opls_145 54 MF C13 1613 0.682492 12.011
1467 opls_901 54 MF N23 1614 -0.299758 14.0067
1468 opls_157 54 MF C3 1615 0.024689 12.011
1469 opls_154 54 MF O3 1616 0.0 15.9994
1470 opls_156 54 MF H031 1618 0.0 1.008
1471 opls_156 54 MF H032 1619 0.0 1.008
1472 opls_910 54 MF H11 1620 0.0 1.008
1473 A 55 MF A1 1621 0.0 72.06679999999997
1474 opls_902 55 MF N11 1622 -0.407377 14.0067
1475 opls_145 55 MF C11 1623 0.682493 12.011
1476 opls_901 55 MF N21 1624 -0.299731 14.0067
1477 opls_157 55 MF C1 1625 0.024669 12.011
1478 opls_154 55 MF O1 1626 0.0 15.9994
1479 opls_156 55 MF H011 1628 0.0 1.008
1480 opls_156 55 MF H012 1629 0.0 1.008
1481 opls_910 55 MF H21 1630 0.0 1.008
1482 A 55 MF A2 1631 0.0 72.06679999999997
1483 opls_902 55 MF N12 1632 -0.407374 14.0067
1484 opls_145 55 MF C12 1633 0.682437 12.011
1485 opls_901 55 MF N22 1634 -0.299729 14.0067
1486 opls_157 55 MF C2 1635 0.024672 12.011
1487 opls_154 55 MF O2 1636 0.0 15.9994
1488 opls_156 55 MF H021 1638 0.0 1.008
1489 opls_156 55 MF H022 1639 0.0 1.008
1490 opls_910 55 MF H31 1640 0.0 1.008
1491 A 55 MF A3 1641 0.0 72.06679999999997
1492 opls_902 55 MF N13 1642 -0.407483 14.0067
1493 opls_145 55 MF C13 1643 0.682492 12.011
1494 opls_901 55 MF N23 1644 -0.299758 14.0067
1495 opls_157 55 MF C3 1645 0.024689 12.011
1496 opls_154 55 MF O3 1646 0.0 15.9994
1497 opls_156 55 MF H031 1648 0.0 1.008
1498 opls_156 55 MF H032 1649 0.0 1.008
1499 opls_910 55 MF H11 1650 0.0 1.008
1500 A 56 MF A1 1651 0.0 72.06679999999997
1501 opls_902 56 MF N11 1652 -0.407377 14.0067
1502 opls_145 56 MF C11 1653 0.682493 12.011
1503 opls_901 56 MF N21 1654 -0.299731 14.0067
1504 opls_157 56 MF C1 1655 0.024669 12.011
1505 opls_154 56 MF O1 1656 0.0 15.9994
1506 opls_156 56 MF H011 1658 0.0 1.008
1507 opls_156 56 MF H012 1659 0.0 1.008
1508 opls_910 56 MF H21 1660 0.0 1.008
1509 A 56 MF A2 1661 0.0 72.06679999999997
1510 opls_902 56 MF N12 1662 -0.407374 14.0067
1511 opls_145 56 MF C12 1663 0.682437 12.011
1512 opls_901 56 MF N22 1664 -0.299729 14.0067
1513 opls_157 56 MF C2 1665 0.024672 12.011
1514 opls_154 56 MF O2 1666 0.0 15.9994
1515 opls_156 56 MF H021 1668 0.0 1.008
1516 opls_156 56 MF H022 1669 0.0 1.008
1517 opls_910 56 MF H31 1670 0.0 1.008
1518 A 56 MF A3 1671 0.0 72.06679999999997
1519 opls_902 56 MF N13 1672 -0.407483 14.0067
1520 opls_145 56 MF C13 1673 0.682492 12.011
1521 opls_901 56 MF N23 1674 -0.299758 14.0067
1522 opls_157 56 MF C3 1675 0.024689 12.011
1523 opls_154 56 MF O3 1676 0.0 15.9994
1524 opls_156 56 MF H031 1678 0.0 1.008
1525 opls_156 56 MF H032 1679 0.0 1.008
1526 opls_910 56 MF H11 1680 0.0 1.008
1527 A 57 MF A1 1681 0.0 72.06679999999997
1528 opls_902 57 MF N11 1682 -0.407377 14.0067
1529 opls_145 57 MF C11 1683 0.682493 12.011
1530 opls_901 57 MF N21 1684 -0.299731 14.0067
1531 opls_157 57 MF C1 1685 0.024669 12.011
1532 opls_154 57 MF O1 1686 0.0 15.9994
1533 opls_156 57 MF H011 1688 0.0 1.008
1534 opls_156 57 MF H012 1689 0.0 1.008
1535 opls_910 57 MF H21 1690 0.0 1.008
1536 A 57 MF A2 1691 0.0 72.06679999999997
1537 opls_902 57 MF N12 1692 -0.407374 14.0067
1538 opls_145 57 MF C12 1693 0.682437 12.011
1539 opls_901 57 MF N22 1694 -0.299729 14.0067
1540 opls_157 57 MF C2 1695 0.024672 12.011
1541 opls_154 57 MF O2 1696 0.0 15.9994
1542 opls_156 57 MF H021 1698 0.0 1.008
1543 opls_156 57 MF H022 1699 0.0 1.008
1544 opls_910 57 MF H31 1700 0.0 1.008
1545 A 57 MF A3 1701 0.0 72.06679999999997
1546 opls_902 57 MF N13 1702 -0.407483 14.0067
1547 opls_145 57 MF C13 1703 0.682492 12.011
1548 opls_901 57 MF N23 1704 -0.299758 14.0067
1549 opls_157 57 MF C3 1705 0.024689 12.011
1550 opls_154 57 MF O3 1706 0.0 15.9994
1551 opls_156 57 MF H031 1708 0.0 1.008
1552 opls_156 57 MF H032 1709 0.0 1.008
1553 opls_910 57 MF H11 1710 0.0 1.008
1554 A 58 MF A1 1711 0.0 72.06679999999997
1555 opls_902 58 MF N11 1712 -0.407377 14.0067
1556 opls_145 58 MF C11 1713 0.682493 12.011
1557 opls_901 58 MF N21 1714 -0.299731 14.0067
1558 opls_157 58 MF C1 1715 0.024669 12.011
1559 opls_156 58 MF H011 1718 0.0 1.008
1560 opls_156 58 MF H012 1719 0.0 1.008
1561 opls_910 58 MF H21 1720 0.0 1.008
1562 A 58 MF A2 1721 0.0 72.06679999999997
1563 opls_902 58 MF N12 1722 -0.407374 14.0067
1564 opls_145 58 MF C12 1723 0.682437 12.011
1565 opls_901 58 MF N22 1724 -0.299729 14.0067
1566 opls_157 58 MF C2 1725 0.024672 12.011
1567 opls_154 58 MF O2 1726 0.0 15.9994
1568 opls_156 58 MF H021 1728 0.0 1.008
1569 opls_156 58 MF H022 1729 0.0 1.008
1570 opls_910 58 MF H31 1730 0.0 1.008
1571 A 58 MF A3 1731 0.0 72.06679999999997
1572 opls_902 58 MF N13 1732 -0.407483 14.0067
1573 opls_145 58 MF C13 1733 0.682492 12.011
1574 opls_901 58 MF N23 1734 -0.299758 14.0067
1575 opls_157 58 MF C3 1735 0.024689 12.011
1576 opls_154 58 MF O3 1736 0.0 15.9994
1577 opls_156 58 MF H031 1738 0.0 1.008
1578 opls_156 58 MF H032 1739 0.0 1.008
1579 opls_910 58 MF H11 1740 0.0 1.008
1580 A 59 MF A1 1741 0.0 72.06679999999997
1581 opls_902 59 MF N11 1742 -0.407377 14.0067
1582 opls_145 59 MF C11 1743 0.682493 12.011
1583 opls_901 59 MF N21 1744 -0.299731 14.0067
1584 opls_157 59 MF C1 1745 0.024669 12.011
1585 opls_154 59 MF O1 1746 0.0 15.9994
1586 opls_156 59 MF H011 1748 0.0 1.008
1587 opls_156 59 MF H012 1749 0.0 1.008
1588 opls_910 59 MF H21 1750 0.0 1.008
1589 A 59 MF A2 1751 0.0 72.06679999999997
1590 opls_902 59 MF N12 1752 -0.407374 14.0067
1591 opls_145 59 MF C12 1753 0.682437 12.011
1592 opls_901 59 MF N22 1754 -0.299729 14.0067
1593 opls_157 59 MF C2 1755 0.024672 12.011
1594 opls_154 59 MF O2 1756 0.0 15.9994
1595 opls_156 59 MF H021 1758 0.0 1.008
1596 opls_156 59 MF H022 1759 0.0 1.008
1597 opls_910 59 MF H31 1760 0.0 1.008
1598 A 59 MF A3 1761 0.0 72.06679999999997
1599 opls_902 59 MF N13 1762 -0.407483 14.0067
1600 opls_145 59 MF C13 1763 0.682492 12.011
1601 opls_901 59 MF N23 1764 -0.299758 14.0067
1602 opls_157 59 MF C3 1765 0.024689 12.011
1603 opls_154 59 MF O3 1766 0.0 15.9994
1604 opls_156 59 MF H031 1768 0.0 1.008
1605 opls_156 59 MF H032 1769 0.0 1.008
1606 opls_910 59 MF H11 1770 0.0 1.008
1607 A 60 MF A1 1771 0.0 72.06679999999997
1608 opls_902 60 MF N11 1772 -0.407377 14.0067
1609 opls_145 60 MF C11 1773 0.682493 12.011
1610 opls_901 60 MF N21 1774 -0.299731 14.0067
1611 opls_157 60 MF C1 1775 0.024669 12.011
1612 opls_154 60 MF O1 1776 0.0 15.9994
1613 opls_156 60 MF H011 1778 0.0 1.008
1614 opls_156 60 MF H012 1779 0.0 1.008
1615 opls_910 60 MF H21 1780 0.0 1.008
1616 A 60 MF A2 1781 0.0 72.06679999999997
1617 opls_902 60 MF N12 1782 -0.407374 14.0067
1618 opls_145 60 MF C12 1783 0.682437 12.011
1619 opls_901 60 MF N22 1784 -0.299729 14.0067
1620 opls_157 60 MF C2 1785 0.024672 12.011
1621 opls_154 60 MF O2 1786 0.0 15.9994
1622 opls_156 60 MF H021 1788 0.0 1.008
1623 opls_156 60 MF H022 1789 0.0 1.008
1624 opls_910 60 MF H31 1790 0.0 1.008
1625 A 60 MF A3 1791 0.0 72.06679999999997
1626 opls_902 60 MF N13 1792 -0.407483 14.0067
1627 opls_145 60 MF C13 1793 0.682492 12.011
1628 opls_901 60 MF N23 1794 -0.299758 14.0067
1629 opls_157 60 MF C3 1795 0.024689 12.011
1630 opls_154 60 MF O3 1796 0.0 15.9994
1631 opls_156 60 MF H031 1798 0.0 1.008
1632 opls_156 60 MF H032 1799 0.0 1.008
1633 opls_910 60 MF H11 1800 0.0 1.008
1634 A 61 MF A1 1801 0.0 72.06679999999997
1635 opls_902 61 MF N11 1802 -0.407377 14.0067
1636 opls_145 61 MF C11 1803 0.682493 12.011
1637 opls_901 61 MF N21 1804 -0.299731 14.0067
1638 opls_157 61 MF C1 1805 0.024669 12.011
1639 opls_154 61 MF O1 1806 0.0 15.9994
1640 opls_156 61 MF H011 1808 0.0 1.008
1641 opls_156 61 MF H012 1809 0.0 1.008
1642 opls_910 61 MF H21 1810 0.0 1.008
1643 A 61 MF A2 1811 0.0 72.06679999999997
1644 opls_902 61 MF N12 1812 -0.407374 14.0067
1645 opls_145 61 MF C12 1813 0.682437 12.011
1646 opls_901 61 MF N22 1814 -0.299729 14.0067
1647 opls_157 61 MF C2 1815 0.024672 12.011
1648 opls_154 61 MF O2 1816 0.0 15.9994
1649 opls_155 61 MF H02 1817 0.0 1.008
1650 opls_156 61 MF H021 1818 0.0 1.008
1651 opls_156 61 MF H022 1819 0.0 1.008
1652 opls_910 61 MF H31 1820 0.0 1.008
1653 A 61 MF A3 1821 0.0 72.06679999999997
1654 opls_902 61 MF N13 1822 -0.407483 14.0067
1655 opls_145 61 MF C13 1823 0.682492 12.011
1656 opls_901 61 MF N23 1824 -0.299758 14.0067
1657 opls_157 61 MF C3 1825 0.024689 12.011
1658 opls_154 61 MF O3 1826 0.0 15.9994
1659 opls_156 61 MF H031 1828 0.0 1.008
1660 opls_156 61 MF H032 1829 0.0 1.008
1661 opls_910 61 MF H11 1830 0.0 1.008
1662 A 62 MF A1 1831 0.0 72.06679999999997
1663 opls_902 62 MF N11 1832 -0.407377 14.0067
1664 opls_145 62 MF C11 1833 0.682493 12.011
1665 opls_901 62 MF N21 1834 -0.299731 14.0067
1666 opls_157 62 MF C1 1835 0.024669 12.011
1667 opls_154 62 MF O1 1836 0.0 15.9994
1668 opls_156 62 MF H011 1838 0.0 1.008
1669 opls_156 62 MF H012 1839 0.0 1.008
1670 opls_910 62 MF H21 1840 0.0 1.008
1671 A 62 MF A2 1841 0.0 72.06679999999997
1672 opls_902 62 MF N12 1842 -0.407374 14.0067
1673 opls_145 62 MF C12 1843 0.682437 12.011
1674 opls_901 62 MF N22 1844 -0.299729 14.0067
1675 opls_157 62 MF C2 1845 0.024672 12.011
1676 opls_156 62 MF H021 1848 0.0 1.008
1677 opls_156 62 MF H022 1849 0.0 1.008
1678 opls_910 62 MF H31 1850 0.0 1.008
1679 A 62 MF A3 1851 0.0 72.06679999999997
1680 opls_902 62 MF N13 1852 -0.407483 14.0067
1681 opls_145 62 MF C13 1853 0.682492 12.011
1682 opls_901 62 MF N23 1854 -0.299758 14.0067
1683 opls_157 62 MF C3 1855 0.024689 12.011
1684 opls_154 62 MF O3 1856 0.0 15.9994
1685 opls_156 62 MF H031 1858 0.0 1.008
1686 opls_156 62 MF H032 1859 0.0 1.008
1687 opls_910 62 MF H11 1860 0.0 1.008
1688 A 63 MF A1 1861 0.0 72.06679999999997
1689 opls_902 63 MF N11 1862 -0.407377 14.0067
1690 opls_145 63 MF C11 1863 0.682493 12.011
1691 opls_901 63 MF N21 1864 -0.299731 14.0067
1692 opls_157 63 MF C1 1865 0.024669 12.011
1693 opls_154 63 MF O1 1866 0.0 15.9994
1694 opls_156 63 MF H011 1868 0.0 1.008
1695 opls_156 63 MF H012 1869 0.0 1.008
1696 opls_910 63 MF H21 1870 0.0 1.008
1697 A 63 MF A2 1871 0.0 72.06679999999997
1698 opls_902 63 MF N12 1872 -0.407374 14.0067
1699 opls_145 63 MF C12 1873 0.682437 12.011
1700 opls_901 63 MF N22 1874 -0.299729 14.0067
1701 opls_157 63 MF C2 1875 0.024672 12.011
1702 opls_156 63 MF H021 1878 0.0 1.008
1703 opls_156 63 MF H022 1879 0.0 1.008
1704 opls_910 63 MF H31 1880 0.0 1.008
1705 A 63 MF A3 1881 0.0 72.06679999999997
1706 opls_902 63 MF N13 1882 -0.407483 14.0067
1707 opls_145 63 MF C13 1883 0.682492 12.011
1708 opls_901 63 MF N23 1884 -0.299758 14.0067
1709 opls_157 63 MF C3 1885 0.024689 12.011
1710 opls_156 63 MF H031 1888 0.0 1.008
1711 opls_156 63 MF H032 1889 0.0 1.008
1712 opls_910 63 MF H11 1890 0.0 1.008
1713 A 64 MF A1 1891 0.0 72.06679999999997
1714 opls_902 64 MF N11 1892 -0.407377 14.0067
1715 opls_145 64 MF C11 1893 0.682493 12.011
1716 opls_901 64 MF N21 1894 -0.299731 14.0067
1717 opls_157 64 MF C1 1895 0.024669 12.011
1718 opls_154 64 MF O1 1896 0.0 15.9994
1719 opls_156 64 MF H011 1898 0.0 1.008
1720 opls_156 64 MF H012 1899 0.0 1.008
1721 opls_910 64 MF H21 1900 0.0 1.008
1722 A 64 MF A2 1901 0.0 72.06679999999997
1723 opls_902 64 MF N12 1902 -0.407374 14.0067
1724 opls_145 64 MF C12 1903 0.682437 12.011
1725 opls_901 64 MF N22 1904 -0.299729 14.0067
1726 opls_157 64 MF C2 1905 0.024672 12.011
1727 opls_154 64 MF O2 1906 0.0 15.9994
1728 opls_156 64 MF H021 1908 0.0 1.008
1729 opls_156 64 MF H022 1909 0.0 1.008
1730 opls_910 64 MF H31 1910 0.0 1.008
1731 A 64 MF A3 1911 0.0 72.06679999999997
1732 opls_902 64 MF N13 1912 -0.407483 14.0067
1733 opls_145 64 MF C13 1913 0.682492 12.011
1734 opls_901 64 MF N23 1914 -0.299758 14.0067
1735 opls_157 64 MF C3 1915 0.024689 12.011
1736 opls_154 64 MF O3 1916 0.0 15.9994
1737 opls_156 64 MF H031 1918 0.0 1.008
1738 opls_156 64 MF H032 1919 0.0 1.008
1739 opls_910 64 MF H11 1920 0.0 1.008
1740 A 65 MF A1 1921 0.0 72.06679999999997
1741 opls_902 65 MF N11 1922 -0.407377 14.0067
1742 opls_145 65 MF C11 1923 0.682493 12.011
1743 opls_901 65 MF N21 1924 -0.299731 14.0067
1744 opls_157 65 MF C1 1925 0.024669 12.011
1745 opls_154 65 MF O1 1926 0.0 15.9994
1746 opls_156 65 MF H011 1928 0.0 1.008
1747 opls_156 65 MF H012 1929 0.0 1.008
1748 opls_910 65 MF H21 1930 0.0 1.008
1749 A 65 MF A2 1931 0.0 72.06679999999997
1750 opls_902 65 MF N12 1932 -0.407374 14.0067
1751 opls_145 65 MF C12 1933 0.682437 12.011
1752 opls_901 65 MF N22 1934 -0.299729 14.0067
1753 opls_157 65 MF C2 1935 0.024672 12.011
1754 opls_154 65 MF O2 1936 0.0 15.9994
1755 opls_156 65 MF H021 1938 0.0 1.008
1756 opls_156 65 MF H022 1939 0.0 1.008
1757 opls_910 65 MF H31 1940 0.0 1.008
1758 A 65 MF A3 1941 0.0 72.06679999999997
1759 opls_902 65 MF N13 1942 -0.407483 14.0067
1760 opls_145 65 MF C13 1943 0.682492 12.011
1761 opls_901 65 MF N23 1944 -0.299758 14.0067
1762 opls_157 65 MF C3 1945 0.024689 12.011
1763 opls_154 65 MF O3 1946 0.0 15.9994
1764 opls_155 65 MF H03 1947 0.0 1.008
1765 opls_156 65 MF H031 1948 0.0 1.008
1766 opls_156 65 MF H032 1949 0.0 1.008
1767 opls_910 65 MF H11 1950 0.0 1.008
1768 A 66 MF A1 1951 0.0 72.06679999999997
1769 opls_902 66 MF N11 1952 -0.407377 14.0067
1770 opls_145 66 MF C11 1953 0.682493 12.011
1771 opls_901 66 MF N21 1954 -0.299731 14.0067
1772 opls_157 66 MF C1 1955 0.024669 12.011
1773 opls_154 66 MF O1 1956 0.0 15.9994
1774 opls_156 66 MF H011 1958 0.0 1.008
1775 opls_156 66 MF H012 1959 0.0 1.008
1776 opls_910 66 MF H21 1960 0.0 1.008
1777 A 66 MF A2 1961 0.0 72.06679999999997
1778 opls_902 66 MF N12 1962 -0.407374 14.0067
1779 opls_145 66 MF C12 1963 0.682437 12.011
1780 opls_901 66 MF N22 1964 -0.299729 14.0067
1781 opls_157 66 MF C2 1965 0.024672 12.011
1782 opls_154 66 MF O2 1966 0.0 15.9994
1783 opls_156 66 MF H021 1968 0.0 1.008
1784 opls_156 66 MF H022 1969 0.0 1.008
1785 opls_910 66 MF H31 1970 0.0 1.008
1786 A 66 MF A3 1971 0.0 72.06679999999997
1787 opls_902 66 MF N13 1972 -0.407483 14.0067
1788 opls_145 66 MF C13 1973 0.682492 12.011
1789 opls_901 66 MF N23 1974 -0.299758 14.0067
1790 opls_157 66 MF C3 1975 0.024689 12.011
1791 opls_154 66 MF O3 1976 0.0 15.9994
1792 opls_156 66 MF H031 1978 0.0 1.008
1793 opls_156 66 MF H032 1979 0.0 1.008
1794 opls_910 66 MF H11 1980 0.0 1.008
1795 A 67 MF A1 1981 0.0 72.06679999999997
1796 opls_902 67 MF N11 1982 -0.407377 14.0067
1797 opls_145 67 MF C11 1983 0.682493 12.011
1798 opls_901 67 MF N21 1984 -0.299731 14.0067
1799 opls_157 67 MF C1 1985 0.024669 12.011
1800 opls_154 67 MF O1 1986 0.0 15.9994
1801 opls_156 67 MF H011 1988 0.0 1.008
1802 opls_156 67 MF H012 1989 0.0 1.008
1803 opls_910 67 MF H21 1990 0.0 1.008
1804 A 67 MF A2 1991 0.0 72.06679999999997
1805 opls_902 67 MF N12 1992 -0.407374 14.0067
1806 opls_145 67 MF C12 1993 0.682437 12.011
1807 opls_901 67 MF N22 1994 -0.299729 14.0067
1808 opls_157 67 MF C2 1995 0.024672 12.011
1809 opls_154 67 MF O2 1996 0.0 15.9994
1810 opls_156 67 MF H021 1998 0.0 1.008
1811 opls_156 67 MF H022 1999 0.0 1.008
1812 opls_910 67 MF H31 2000 0.0 1.008
1813 A 67 MF A3 2001 0.0 72.06679999999997
1814 opls_902 67 MF N13 2002 -0.407483 14.0067
1815 opls_145 67 MF C13 2003 0.682492 12.011
1816 opls_901 67 MF N23 2004 -0.299758 14.0067
1817 opls_157 67 MF C3 2005 0.024689 12.011
1818 opls_154 67 MF O3 2006 0.0 15.9994
1819 opls_156 67 MF H031 2008 0.0 1.008
1820 opls_156 67 MF H032 2009 0.0 1.008
1821 opls_910 67 MF H11 2010 0.0 1.008
1822 A 68 MF A1 2011 0.0 72.06679999999997
1823 opls_902 68 MF N11 2012 -0.407377 14.0067
1824 opls_145 68 MF C11 2013 0.682493 12.011
1825 opls_901 68 MF N21 2014 -0.299731 14.0067
1826 opls_157 68 MF C1 2015 0.024669 12.011
1827 opls_154 68 MF O1 2016 0.0 15.9994
1828 opls_156 68 MF H011 2018 0.0 1.008
1829 opls_156 68 MF H012 2019 0.0 1.008
1830 opls_910 68 MF H21 2020 0.0 1.008
1831 A 68 MF A2 2021 0.0 72.06679999999997
1832 opls_902 68 MF N12 2022 -0.407374 14.0067
1833 opls_145 68 MF C12 2023 0.682437 12.011
1834 opls_901 68 MF N22 2024 -0.299729 14.0067
1835 opls_157 68 MF C2 2025 0.024672 12.011
1836 opls_154 68 MF O2 2026 0.0 15.9994
1837 opls_155 68 MF H02 2027 0.0 1.008
1838 opls_156 68 MF H021 2028 0.0 1.008
1839 opls_156 68 MF H022 2029 0.0 1.008
1840 opls_910 68 MF H31 2030 0.0 1.008
1841 A 68 MF A3 2031 0.0 72.06679999999997
1842 opls_902 68 MF N13 2032 -0.407483 14.0067
1843 opls_145 68 MF C13 2033 0.682492 12.011
1844 opls_901 68 MF N23 2034 -0.299758 14.0067
1845 opls_157 68 MF C3 2035 0.024689 12.011
1846 opls_154 68 MF O3 2036 0.0 15.9994
1847 opls_156 68 MF H031 2038 0.0 1.008
1848 opls_156 68 MF H032 2039 0.0 1.008
1849 opls_910 68 MF H11 2040 0.0 1.008
1850 A 69 MF A1 2041 0.0 72.06679999999997
1851 opls_902 69 MF N11 2042 -0.407377 14.0067
1852 opls_145 69 MF C11 2043 0.682493 12.011
1853 opls_901 69 MF N21 2044 -0.299731 14.0067
1854 opls_157 69 MF C1 2045 0.024669 12.011
1855 opls_156 69 MF H011 2048 0.0 1.008
1856 opls_156 69 MF H012 2049 0.0 1.008
1857 opls_910 69 MF H21 2050 0.0 1.008
1858 A 69 MF A2 2051 0.0 72.06679999999997
1859 opls_902 69 MF N12 2052 -0.407374 14.0067
1860 opls_145 69 MF C12 2053 0.682437 12.011
1861 opls_901 69 MF N22 2054 -0.299729 14.0067
1862 opls_157 69 MF C2 2055 0.024672 12.011
1863 opls_154 69 MF O2 2056 0.0 15.9994
1864 opls_156 69 MF H021 2058 0.0 1.008
1865 opls_156 69 MF H022 2059 0.0 1.008
1866 opls_910 69 MF H31 2060 0.0 1.008
1867 A 69 MF A3 2061 0.0 72.06679999999997
1868 opls_902 69 MF N13 2062 -0.407483 14.0067
1869 opls_145 69 MF C13 2063 0.682492 12.011
1870 opls_901 69 MF N23 2064 -0.299758 14.0067
1871 opls_157 69 MF C3 2065 0.024689 12.011
1872 opls_154 69 MF O3 2066 0.0 15.9994
1873 opls_156 69 MF H031 2068 0.0 1.008
1874 opls_156 69 MF H032 2069 0.0 1.008
1875 opls_910 69 MF H11 2070 0.0 1.008
1876 A 70 MF A1 2071 0.0 72.06679999999997
1877 opls_902 70 MF N11 2072 -0.407377 14.0067
1878 opls_145 70 MF C11 2073 0.682493 12.011
1879 opls_901 70 MF N21 2074 -0.299731 14.0067
1880 opls_157 70 MF C1 2075 0.024669 12.011
1881 opls_154 70 MF O1 2076 0.0 15.9994
1882 opls_156 70 MF H011 2078 0.0 1.008
1883 opls_156 70 MF H012 2079 0.0 1.008
1884 opls_910 70 MF H21 2080 0.0 1.008
1885 A 70 MF A2 2081 0.0 72.06679999999997
1886 opls_902 70 MF N12 2082 -0.407374 14.0067
1887 opls_145 70 MF C12 2083 0.682437 12.011
1888 opls_901 70 MF N22 2084 -0.299729 14.0067
1889 opls_157 70 MF C2 2085 0.024672 12.011
1890 opls_154 70 MF O2 2086 0.0 15.9994
1891 opls_156 70 MF H021 2088 0.0 1.008
1892 opls_156 70 MF H022 2089 0.0 1.008
1893 opls_910 70 MF H31 2090 0.0 1.008
1894 A 70 MF A3 2091 0.0 72.06679999999997
1895 opls_902 70 MF N13 2092 -0.407483 14.0067
1896 opls_145 70 MF C13 2093 0.682492 12.011
1897 opls_901 70 MF N23 2094 -0.299758 14.0067
1898 opls_157 70 MF C3 2095 0.024689 12.011
1899 opls_154 70 MF O3 2096 0.0 15.9994
1900 opls_156 70 MF H031 2098 0.0 1.008
1901 opls_156 70 MF H032 2099 0.0 1.008
1902 opls_910 70 MF H11 2100 0.0 1.008
1903 A 71 MF A1 2101 0.0 72.06679999999997
1904 opls_902 71 MF N11 2102 -0.407377 14.0067
1905 opls_145 71 MF C11 2103 0.682493 12.011
1906 opls_901 71 MF N21 2104 -0.299731 14.0067
1907 opls_157 71 MF C1 2105 0.024669 12.011
1908 opls_156 71 MF H011 2108 0.0 1.008
1909 opls_156 71 MF H012 2109 0.0 1.008
1910 opls_910 71 MF H21 2110 0.0 1.008
1911 A 71 MF A2 2111 0.0 72.06679999999997
1912 opls_902 71 MF N12 2112 -0.407374 14.0067
1913 opls_145 71 MF C12 2113 0.682437 12.011
1914 opls_901 71 MF N22 2114 -0.299729 14.0067
1915 opls_157 71 MF C2 2115 0.024672 12.011
1916 opls_154 71 MF O2 2116 0.0 15.9994
1917 opls_156 71 MF H021 2118 0.0 1.008
1918 opls_156 71 MF H022 2119 0.0 1.008
1919 opls_910 71 MF H31 2120 0.0 1.008
1920 A 71 MF A3 2121 0.0 72.06679999999997
1921 opls_902 71 MF N13 2122 -0.407483 14.0067
1922 opls_145 71 MF C13 2123 0.682492 12.011
1923 opls_901 71 MF N23 2124 -0.299758 14.0067
1924 opls_157 71 MF C3 2125 0.024689 12.011
1925 opls_156 71 MF H031 2128 0.0 1.008
1926 opls_156 71 MF H032 2129 0.0 1.008
1927 opls_910 71 MF H11 2130 0.0 1.008
1928 A 72 MF A1 2131 0.0 72.06679999999997
1929 opls_902 72 MF N11 2132 -0.407377 14.0067
1930 opls_145 72 MF C11 2133 0.682493 12.011
1931 opls_901 72 MF N21 2134 -0.299731 14.0067
1932 opls_157 72 MF C1 2135 0.024669 12.011
1933 opls_154 72 MF O1 2136 0.0 15.9994
1934 opls_156 72 MF H011 2138 0.0 1.008
1935 opls_156 72 MF H012 2139 0.0 1.008
1936 opls_910 72 MF H21 2140 0.0 1.008
1937 A 72 MF A2 2141 0.0 72.06679999999997
1938 opls_902 72 MF N12 2142 -0.407374 14.0067
1939 opls_145 72 MF C12 2143 0.682437 12.011
1940 opls_901 72 MF N22 2144 -0.299729 14.0067
1941 opls_157 72 MF C2 2145 0.024672 12.011
1942 opls_154 72 MF O2 2146 0.0 15.9994
1943 opls_156 72 MF H021 2148 0.0 1.008
1944 opls_156 72 MF H022 2149 0.0 1.008
1945 opls_910 72 MF H31 2150 0.0 1.008
1946 A 72 MF A3 2151 0.0 72.06679999999997
1947 opls_902 72 MF N13 2152 -0.407483 14.0067
1948 opls_145 72 MF C13 2153 0.682492 12.011
1949 opls_901 72 MF N23 2154 -0.299758 14.0067
1950 opls_157 72 MF C3 2155 0.024689 12.011
1951 opls_154 72 MF O3 2156 0.0 15.9994
1952 opls_156 72 MF H031 2158 0.0 1.008
1953 opls_156 72 MF H032 2159 0.0 1.008
1954 opls_910 72 MF H11 2160 0.0 1.008
1955 A 73 MF A1 2161 0.0 72.06679999999997
1956 opls_902 73 MF N11 2162 -0.407377 14.0067
1957 opls_145 73 MF C11 2163 0.682493 12.011
1958 opls_901 73 MF N21 2164 -0.299731 14.0067
1959 opls_157 73 MF C1 2165 0.024669 12.011
1960 opls_154 73 MF O1 2166 0.0 15.9994
1961 opls_156 73 MF H011 2168 0.0 1.008
1962 opls_156 73 MF H012 2169 0.0 1.008
1963 opls_910 73 MF H21 2170 0.0 1.008
1964 A 73 MF A2 2171 0.0 72.06679999999997
1965 opls_902 73 MF N12 2172 -0.407374 14.0067
1966 opls_145 73 MF C12 2173 0.682437 12.011
1967 opls_901 73 MF N22 2174 -0.299729 14.0067
1968 opls_157 73 MF C2 2175 0.024672 12.011
1969 opls_154 73 MF O2 2176 0.0 15.9994
1970 opls_156 73 MF H021 2178 0.0 1.008
1971 opls_156 73 MF H022 2179 0.0 1.008
1972 opls_910 73 MF H31 2180 0.0 1.008
1973 A 73 MF A3 2181 0.0 72.06679999999997
1974 opls_902 73 MF N13 2182 -0.407483 14.0067
1975 opls_145 73 MF C13 2183 0.682492 12.011
1976 opls_901 73 MF N23 2184 -0.299758 14.0067
1977 opls_157 73 MF C3 2185 0.024689 12.011
1978 opls_154 73 MF O3 2186 0.0 15.9994
1979 opls_156 73 MF H031 2188 0.0 1.008
1980 opls_156 73 MF H032 2189 0.0 1.008
1981 opls_910 73 MF H11 2190 0.0 1.008
1982 A 74 MF A1 2191 0.0 72.06679999999997
1983 opls_902 74 MF N11 2192 -0.407377 14.0067
1984 opls_145 74 MF C11 2193 0.682493 12.011
1985 opls_901 74 MF N21 2194 -0.299731 14.0067
1986 opls_157 74 MF C1 2195 0.024669 12.011
1987 opls_154 74 MF O1 2196 0.0 15.9994
1988 opls_156 74 MF H011 2198 0.0 1.008
1989 opls_156 74 MF H012 2199 0.0 1.008
1990 opls_910 74 MF H21 2200 0.0 1.008
1991 A 74 MF A2 2201 0.0 72.06679999999997
1992 opls_902 74 MF N12 2202 -0.407374 14.0067
1993 opls_145 74 MF C12 2203 0.682437 12.011
1994 opls_901 74 MF N22 2204 -0.299729 14.0067
1995 opls_157 74 MF C2 2205 0.024672 12.011
1996 opls_154 74 MF O2 2206 0.0 15.9994
1997 opls_156 74 MF H021 2208 0.0 1.008
1998 opls_156 74 MF H022 2209 0.0 1.008
1999 opls_910 74 MF H31 2210 0.0 1.008
2000 A 74 MF A3 2211 0.0 72.06679999999997
2001 opls_902 74 MF N13 2212 -0.407483 14.0067
2002 opls_145 74 MF C13 2213 0.682492 12.011
2003 opls_901 74 MF N23 2214 -0.299758 14.0067
2004 opls_157 74 MF C3 2215 0.024689 12.011
2005 opls_154 74 MF O3 2216 0.0 15.9994
2006 opls_156 74 MF H031 2218 0.0 1.008
2007 opls_156 74 MF H032 2219 0.0 1.008
2008 opls_910 74 MF H11 2220 0.0 1.008
2009 A 75 MF A1 2221 0.0 72.06679999999997
2010 opls_902 75 MF N11 2222 -0.407377 14.0067
2011 opls_145 75 MF C11 2223 0.682493 12.011
2012 opls_901 75 MF N21 2224 -0.299731 14.0067
2013 opls_157 75 MF C1 2225 0.024669 12.011
2014 opls_154 75 MF O1 2226 0.0 15.9994
2015 opls_156 75 MF H011 2228 0.0 1.008
2016 opls_156 75 MF H012 2229 0.0 1.008
2017 opls_910 75 MF H21 2230 0.0 1.008
2018 A 75 MF A2 2231 0.0 72.06679999999997
2019 opls_902 75 MF N12 2232 -0.407374 14.0067
2020 opls_145 75 MF C12 2233 0.682437 12.011
2021 opls_901 75 MF N22 2234 -0.299729 14.0067
2022 opls_157 75 MF C2 2235 0.024672 12.011
2023 opls_154 75 MF O2 2236 0.0 15.9994
2024 opls_156 75 MF H021 2238 0.0 1.008
2025 opls_156 75 MF H022 2239 0.0 1.008
2026 opls_910 75 MF H31 2240 0.0 1.008
2027 A 75 MF A3 2241 0.0 72.06679999999997
2028 opls_902 75 MF N13 2242 -0.407483 14.0067
2029 opls_145 75 MF C13 2243 0.682492 12.011
2030 opls_901 75 MF N23 2244 -0.299758 14.0067
2031 opls_157 75 MF C3 2245 0.024689 12.011
2032 opls_154 75 MF O3 2246 0.0 15.9994
2033 opls_156 75 MF H031 2248 0.0 1.008
2034 opls_156 75 MF H032 2249 0.0 1.008
2035 opls_910 75 MF H11 2250 0.0 1.008
2036 A 76 MF A1 2251 0.0 72.06679999999997
2037 opls_902 76 MF N11 2252 -0.407377 14.0067
2038 opls_145 76 MF C11 2253 0.682493 12.011
2039 opls_901 76 MF N21 2254 -0.299731 14.0067
2040 opls_157 76 MF C1 2255 0.024669 12.011
2041 opls_154 76 MF O1 2256 0.0 15.9994
2042 opls_156 76 MF H011 2258 0.0 1.008
2043 opls_156 76 MF H012 2259 0.0 1.008
2044 opls_910 76 MF H21 2260 0.0 1.008
2045 A 76 MF A2 2261 0.0 72.06679999999997
2046 opls_902 76 MF N12 2262 -0.407374 14.0067
2047 opls_145 76 MF C12 2263 0.682437 12.011
2048 opls_901 76 MF N22 2264 -0.299729 14.0067
2049 opls_157 76 MF C2 2265 0.024672 12.011
2050 opls_154 76 MF O2 2266 0.0 15.9994
2051 opls_156 76 MF H021 2268 0.0 1.008
2052 opls_156 76 MF H022 2269 0.0 1.008
2053 opls_910 76 MF H31 2270 0.0 1.008
2054 A 76 MF A3 2271 0.0 72.06679999999997
2055 opls_902 76 MF N13 2272 -0.407483 14.0067
2056 opls_145 76 MF C13 2273 0.682492 12.011
2057 opls_901 76 MF N23 2274 -0.299758 14.0067
2058 opls_157 76 MF C3 2275 0.024689 12.011
2059 opls_154 76 MF O3 2276 0.0 15.9994
2060 opls_156 76 MF H031 2278 0.0 1.008
2061 opls_156 76 MF H032 2279 0.0 1.008
2062 opls_910 76 MF H11 2280 0.0 1.008
2063 A 77 MF A1 2281 0.0 72.06679999999997
2064 opls_902 77 MF N11 2282 -0.407377 14.0067
2065 opls_145 77 MF C11 2283 0.682493 12.011
2066 opls_901 77 MF N21 2284 -0.299731 14.0067
2067 opls_157 77 MF C1 2285 0.024669 12.011
2068 opls_154 77 MF O1 2286 0.0 15.9994
2069 opls_156 77 MF H011 2288 0.0 1.008
2070 opls_156 77 MF H012 2289 0.0 1.008
2071 opls_910 77 MF H21 2290 0.0 1.008
2072 A 77 MF A2 2291 0.0 72.06679999999997
2073 opls_902 77 MF N12 2292 -0.407374 14.0067
2074 opls_145 77 MF C12 2293 0.682437 12.011
2075 opls_901 77 MF N22 2294 -0.299729 14.0067
2076 opls_157 77 MF C2 2295 0.024672 12.011
2077 opls_154 77 MF O2 2296 0.0 15.9994
2078 opls_156 77 MF H021 2298 0.0 1.008
2079 opls_156 77 MF H022 2299 0.0 1.008
2080 opls_910 77 MF H31 2300 0.0 1.008
2081 A 77 MF A3 2301 0.0 72.06679999999997
2082 opls_902 77 MF N13 2302 -0.407483 14.0067
2083 opls_145 77 MF C13 2303 0.682492 12.011
2084 opls_901 77 MF N23 2304 -0.299758 14.0067
2085 opls_157 77 MF C3 2305 0.024689 12.011
2086 opls_156 77 MF H031 2308 0.0 1.008
2087 opls_156 77 MF H032 2309 0.0 1.008
2088 opls_910 77 MF H11 2310 0.0 1.008
2089 A 78 MF A1 2311 0.0 72.06679999999997
2090 opls_902 78 MF N11 2312 -0.407377 14.0067
2091 opls_145 78 MF C11 2313 0.682493 12.011
2092 opls_901 78 MF N21 2314 -0.299731 14.0067
2093 opls_157 78 MF C1 2315 0.024669 12.011
2094 opls_154 78 MF O1 2316 0.0 15.9994
2095 opls_156 78 MF H011 2318 0.0 1.008
2096 opls_156 78 MF H012 2319 0.0 1.008
2097 opls_910 78 MF H21 2320 0.0 1.008
2098 A 78 MF A2 2321 0.0 72.06679999999997
2099 opls_902 78 MF N12 2322 -0.407374 14.0067
2100 opls_145 78 MF C12 2323 0.682437 12.011
2101 opls_901 78 MF N22 2324 -0.299729 14.0067
2102 opls_157 78 MF C2 2325 0.024672 12.011
2103 opls_156 78 MF H021 2328 0.0 1.008
2104 opls_156 78 MF H022 2329 0.0 1.008
2105 opls_910 78 MF H31 2330 0.0 1.008
2106 A 78 MF A3 2331 0.0 72.06679999999997
2107 opls_902 78 MF N13 2332 -0.407483 14.0067
2108 opls_145 78 MF C13 2333 0.682492 12.011
2109 opls_901 78 MF N23 2334 -0.299758 14.0067
2110 opls_157 78 MF C3 2335 0.024689 12.011
2111 opls_156 78 MF H031 2338 0.0 1.008
2112 opls_156 78 MF H032 2339 0.0 1.008
2113 opls_910 78 MF H11 2340 0.0 1.008
2114 A 79 MF A1 2341 0.0 72.06679999999997
2115 opls_902 79 MF N11 2342 -0.407377 14.0067
2116 opls_145 79 MF C11 2343 0.682493 12.011
2117 opls_901 79 MF N21 2344 -0.299731 14.0067
2118 opls_157 79 MF C1 2345 0.024669 12.011
2119 opls_154 79 MF O1 2346 0.0 15.9994
2120 opls_156 79 MF H011 2348 0.0 1.008
2121 opls_156 79 MF H012 2349 0.0 1.008
2122 opls_910 79 MF H21 2350 0.0 1.008
2123 A 79 MF A2 2351 0.0 72.06679999999997
2124 opls_902 79 MF N12 2352 -0.407374 14.0067
2125 opls_145 79 MF C12 2353 0.682437 12.011
2126 opls_901 79 MF N22 2354 -0.299729 14.0067
2127 opls_157 79 MF C2 2355 0.024672 12.011
2128 opls_154 79 MF O2 2356 0.0 15.9994
2129 opls_156 79 MF H021 2358 0.0 1.008
2130 opls_156 79 MF H022 2359 0.0 1.008
2131 opls_910 79 MF H31 2360 0.0 1.008
2132 A 79 MF A3 2361 0.0 72.06679999999997
2133 opls_902 79 MF N13 2362 -0.407483 14.0067
2134 opls_145 79 MF C13 2363 0.682492 12.011
2135 opls_901 79 MF N23 2364 -0.299758 14.0067
2136 opls_157 79 MF C3 2365 0.024689 12.011
2137 opls_154 79 MF O3 2366 0.0 15.9994
2138 opls_156 79 MF H031 2368 0.0 1.008
2139 opls_156 79 MF H032 2369 0.0 1.008
2140 opls_910 79 MF H11 2370 0.0 1.008
2141 A 80 MF A1 2371 0.0 72.06679999999997
2142 opls_902 80 MF N11 2372 -0.407377 14.0067
2143 opls_145 80 MF C11 2373 0.682493 12.011
2144 opls_901 80 MF N21 2374 -0.299731 14.0067
2145 opls_157 80 MF C1 2375 0.024669 12.011
2146 opls_154 80 MF O1 2376 0.0 15.9994
2147 opls_156 80 MF H011 2378 0.0 1.008
2148 opls_156 80 MF H012 2379 0.0 1.008
2149 opls_910 80 MF H21 2380 0.0 1.008
2150 A 80 MF A2 2381 0.0 72.06679999999997
2151 opls_902 80 MF N12 2382 -0.407374 14.0067
2152 opls_145 80 MF C12 2383 0.682437 12.011
2153 opls_901 80 MF N22 2384 -0.299729 14.0067
2154 opls_157 80 MF C2 2385 0.024672 12.011
2155 opls_154 80 MF O2 2386 0.0 15.9994
2156 opls_156 80 MF H021 2388 0.0 1.008
2157 opls_156 80 MF H022 2389 0.0 1.008
2158 opls_910 80 MF H31 2390 0.0 1.008
2159 A 80 MF A3 2391 0.0 72.06679999999997
2160 opls_902 80 MF N13 2392 -0.407483 14.0067
2161 opls_145 80 MF C13 2393 0.682492 12.011
2162 opls_901 80 MF N23 2394 -0.299758 14.0067
2163 opls_157 80 MF C3 2395 0.024689 12.011
2164 opls_154 80 MF O3 2396 0.0 15.9994
2165 opls_156 80 MF H031 2398 0.0 1.008
2166 opls_156 80 MF H032 2399 0.0 1.008
2167 opls_910 80 MF H11 2400 0.0 1.008
2168 A 81 MF A1 2401 0.0 72.06679999999997
2169 opls_902 81 MF N11 2402 -0.407377 14.0067
2170 opls_145 81 MF C11 2403 0.682493 12.011
2171 opls_901 81 MF N21 2404 -0.299731 14.0067
2172 opls_157 81 MF C1 2405 0.024669 12.011
2173 opls_154 81 MF O1 2406 0.0 15.9994
2174 opls_156 81 MF H011 2408 0.0 1.008
2175 opls_156 81 MF H012 2409 0.0 1.008
2176 opls_910 81 MF H21 2410 0.0 1.008
2177 A 81 MF A2 2411 0.0 72.06679999999997
2178 opls_902 81 MF N12 2412 -0.407374 14.0067
2179 opls_145 81 MF C12 2413 0.682437 12.011
2180 opls_901 81 MF N22 2414 -0.299729 14.0067
2181 opls_157 81 MF C2 2415 0.024672 12.011
2182 opls_154 81 MF O2 2416 0.0 15.9994
2183 opls_155 81 MF H02 2417 0.0 1.008
2184 opls_156 81 MF H021 2418 0.0 1.008
2185 opls_156 81 MF H022 2419 0.0 1.008
2186 opls_910 81 MF H31 2420 0.0 1.008
2187 A 81 MF A3 2421 0.0 72.06679999999997
2188 opls_902 81 MF N13 2422 -0.407483 14.0067
2189 opls_145 81 MF C13 2423 0.682492 12.011
2190 opls_901 81 MF N23 2424 -0.299758 14.0067
2191 opls_157 81 MF C3 2425 0.024689 12.011
2192 opls_154 81 MF O3 2426 0.0 15.9994
2193 opls_156 81 MF H031 2428 0.0 1.008
2194 opls_156 81 MF H032 2429 0.0 1.008
2195 opls_910 81 MF H11 2430 0.0 1.008
2196 A 82 MF A1 2431 0.0 72.06679999999997
2197 opls_902 82 MF N11 2432 -0.407377 14.0067
2198 opls_145 82 MF C11 2433 0.682493 12.011
2199 opls_901 82 MF N21 2434 -0.299731 14.0067
2200 opls_157 82 MF C1 2435 0.024669 12.011
2201 opls_154 82 MF O1 2436 0.0 15.9994
2202 opls_156 82 MF H011 2438 0.0 1.008
2203 opls_156 82 MF H012 2439 0.0 1.008
2204 opls_910 82 MF H21 2440 0.0 1.008
2205 A 82 MF A2 2441 0.0 72.06679999999997
2206 opls_902 82 MF N12 2442 -0.407374 14.0067
2207 opls_145 82 MF C12 2443 0.682437 12.011
2208 opls_901 82 MF N22 2444 -0.299729 14.0067
2209 opls_157 82 MF C2 2445 0.024672 12.011
2210 opls_154 82 MF O2 2446 0.0 15.9994
2211 opls_156 82 MF H021 2448 0.0 1.008
2212 opls_156 82 MF H022 2449 0.0 1.008
2213 opls_910 82 MF H31 2450 0.0 1.008
2214 A 82 MF A3 2451 0.0 72.06679999999997
2215 opls_902 82 MF N13 2452 -0.407483 14.0067
2216 opls_145 82 MF C13 2453 0.682492 12.011
2217 opls_901 82 MF N23 2454 -0.299758 14.0067
2218 opls_157 82 MF C3 2455 0.024689 12.011
2219 opls_154 82 MF O3 2456 0.0 15.9994
2220 opls_155 82 MF H03 2457 0.0 1.008
2221 opls_156 82 MF H031 2458 0.0 1.008
2222 opls_156 82 MF H032 2459 0.0 1.008
2223 opls_910 82 MF H11 2460 0.0 1.008
2224 A 83 MF A1 2461 0.0 72.06679999999997
2225 opls_902 83 MF N11 2462 -0.407377 14.0067
2226 opls_145 83 MF C11 2463 0.682493 12.011
2227 opls_901 83 MF N21 2464 -0.299731 14.0067
2228 opls_157 83 MF C1 2465 0.024669 12.011
2229 opls_154 83 MF O1 2466 0.0 15.9994
2230 opls_156 83 MF H011 2468 0.0 1.008
2231 opls_156 83 MF H012 2469 0.0 1.008
2232 opls_910 83 MF H21 2470 0.0 1.008
2233 A 83 MF A2 2471 0.0 72.06679999999997
2234 opls_902 83 MF N12 2472 -0.407374 14.0067
2235 opls_145 83 MF C12 2473 0.682437 12.011
2236 opls_901 83 MF N22 2474 -0.299729 14.0067
2237 opls_157 83 MF C2 2475 0.024672 12.011
2238 opls_154 83 MF O2 2476 0.0 15.9994
2239 opls_156 83 MF H021 2478 0.0 1.008
2240 opls_156 83 MF H022 2479 0.0 1.008
2241 opls_910 83 MF H31 2480 0.0 1.008
2242 A 83 MF A3 2481 0.0 72.06679999999997
2243 opls_902 83 MF N13 2482 -0.407483 14.0067
2244 opls_145 83 MF C13 2483 0.682492 12.011
2245 opls_901 83 MF N23 2484 -0.299758 14.0067
2246 opls_157 83 MF C3 2485 0.024689 12.011
2247 opls_154 83 MF O3 2486 0.0 15.9994
2248 opls_156 83 MF H031 2488 0.0 1.008
2249 opls_156 83 MF H032 2489 0.0 1.008
2250 opls_910 83 MF H11 2490 0.0 1.008
2251 A 84 MF A1 2491 0.0 72.06679999999997
2252 opls_902 84 MF N11 2492 -0.407377 14.0067
2253 opls_145 84 MF C11 2493 0.682493 12.011
2254 opls_901 84 MF N21 2494 -0.299731 14.0067
2255 opls_157 84 MF C1 2495 0.024669 12.011
2256 opls_154 84 MF O1 2496 0.0 15.9994
2257 opls_156 84 MF H011 2498 0.0 1.008
2258 opls_156 84 MF H012 2499 0.0 1.008
2259 opls_910 84 MF H21 2500 0.0 1.008
2260 A 84 MF A2 2501 0.0 72.06679999999997
2261 opls_902 84 MF N12 2502 -0.407374 14.0067
2262 opls_145 84 MF C12 2503 0.682437 12.011
2263 opls_901 84 MF N22 2504 -0.299729 14.0067
2264 opls_157 84 MF C2 2505 0.024672 12.011
2265 opls_154 84 MF O2 2506 0.0 15.9994
2266 opls_156 84 MF H021 2508 0.0 1.008
2267 opls_156 84 MF H022 2509 0.0 1.008
2268 opls_910 84 MF H31 2510 0.0 1.008
2269 A 84 MF A3 2511 0.0 72.06679999999997
2270 opls_902 84 MF N13 2512 -0.407483 14.0067
2271 opls_145 84 MF C13 2513 0.682492 12.011
2272 opls_901 84 MF N23 2514 -0.299758 14.0067
2273 opls_157 84 MF C3 2515 0.024689 12.011
2274 opls_154 84 MF O3 2516 0.0 15.9994
2275 opls_156 84 MF H031 2518 0.0 1.008
2276 opls_156 84 MF H032 2519 0.0 1.008
2277 opls_910 84 MF H11 2520 0.0 1.008
2278 A 85 MF A1 2521 0.0 72.06679999999997
2279 opls_902 85 MF N11 2522 -0.407377 14.0067
2280 opls_145 85 MF C11 2523 0.682493 12.011
2281 opls_901 85 MF N21 2524 -0.299731 14.0067
2282 opls_157 85 MF C1 2525 0.024669 12.011
2283 opls_154 85 MF O1 2526 0.0 15.9994
2284 opls_156 85 MF H011 2528 0.0 1.008
2285 opls_156 85 MF H012 2529 0.0 1.008
2286 opls_910 85 MF H21 2530 0.0 1.008
2287 A 85 MF A2 2531 0.0 72.06679999999997
2288 opls_902 85 MF N12 2532 -0.407374 14.0067
2289 opls_145 85 MF C12 2533 0.682437 12.011
2290 opls_901 85 MF N22 2534 -0.299729 14.0067
2291 opls_157 85 MF C2 2535 0.024672 12.011
2292 opls_154 85 MF O2 2536 0.0 15.9994
2293 opls_156 85 MF H021 2538 0.0 1.008
2294 opls_156 85 MF H022 2539 0.0 1.008
2295 opls_910 85 MF H31 2540 0.0 1.008
2296 A 85 MF A3 2541 0.0 72.06679999999997
2297 opls_902 85 MF N13 2542 -0.407483 14.0067
2298 opls_145 85 MF C13 2543 0.682492 12.011
2299 opls_901 85 MF N23 2544 -0.299758 14.0067
2300 opls_157 85 MF C3 2545 0.024689 12.011
2301 opls_154 85 MF O3 2546 0.0 15.9994
2302 opls_156 85 MF H031 2548 0.0 1.008
2303 opls_156 85 MF H032 2549 0.0 1.008
2304 opls_910 85 MF H11 2550 0.0 1.008
2305 A 86 MF A1 2551 0.0 72.06679999999997
2306 opls_902 86 MF N11 2552 -0.407377 14.0067
2307 opls_145 86 MF C11 2553 0.682493 12.011
2308 opls_901 86 MF N21 2554 -0.299731 14.0067
2309 opls_157 86 MF C1 2555 0.024669 12.011
2310 opls_154 86 MF O1 2556 0.0 15.9994
2311 opls_156 86 MF H011 2558 0.0 1.008
2312 opls_156 86 MF H012 2559 0.0 1.008
2313 opls_910 86 MF H21 2560 0.0 1.008
2314 A 86 MF A2 2561 0.0 72.06679999999997
2315 opls_902 86 MF N12 2562 -0.407374 14.0067
2316 opls_145 86 MF C12 2563 0.682437 12.011
2317 opls_901 86 MF N22 2564 -0.299729 14.0067
2318 opls_157 86 MF C2 2565 0.024672 12.011
2319 opls_154 86 MF O2 2566 0.0 15.9994
2320 opls_156 86 MF H021 2568 0.0 1.008
2321 opls_156 86 MF H022 2569 0.0 1.008
2322 opls_910 86 MF H31 2570 0.0 1.008
2323 A 86 MF A3 2571 0.0 72.06679999999997
2324 opls_902 86 MF N13 2572 -0.407483 14.0067
2325 opls_145 86 MF C13 2573 0.682492 12.011
2326 opls_901 86 MF N23 2574 -0.299758 14.0067
2327 opls_157 86 MF C3 2575 0.024689 12.011
2328 opls_154 86 MF O3 2576 0.0 15.9994
2329 opls_156 86 MF H031 2578 0.0 1.008
2330 opls_156 86 MF H032 2579 0.0 1.008
2331 opls_910 86 MF H11 2580 0.0 1.008
2332 A 87 MF A1 2581 0.0 72.06679999999997
2333 opls_902 87 MF N11 2582 -0.407377 14.0067
2334 opls_145 87 MF C11 2583 0.682493 12.011
2335 opls_901 87 MF N21 2584 -0.299731 14.0067
2336 opls_157 87 MF C1 2585 0.024669 12.011
2337 opls_154 87 MF O1 2586 0.0 15.9994
2338 opls_156 87 MF H011 2588 0.0 1.008
2339 opls_156 87 MF H012 2589 0.0 1.008
2340 opls_910 87 MF H21 2590 0.0 1.008
2341 A 87 MF A2 2591 0.0 72.06679999999997
2342 opls_902 87 MF N12 2592 -0.407374 14.0067
2343 opls_145 87 MF C12 2593 0.682437 12.011
2344 opls_901 87 MF N22 2594 -0.299729 14.0067
2345 opls_157 87 MF C2 2595 0.024672 12.011
2346 opls_154 87 MF O2 2596 0.0 15.9994
2347 opls_156 87 MF H021 2598 0.0 1.008
2348 opls_156 87 MF H022 2599 0.0 1.008
2349 opls_910 87 MF H31 2600 0.0 1.008
2350 A 87 MF A3 2601 0.0 72.06679999999997
2351 opls_902 87 MF N13 2602 -0.407483 14.0067
2352 opls_145 87 MF C13 2603 0.682492 12.011
2353 opls_901 87 MF N23 2604 -0.299758 14.0067
2354 opls_157 87 MF C3 2605 0.024689 12.011
2355 opls_154 87 MF O3 2606 0.0 15.9994
2356 opls_155 87 MF H03 2607 0.0 1.008
2357 opls_156 87 MF H031 2608 0.0 1.008
2358 opls_156 87 MF H032 2609 0.0 1.008
2359 opls_910 87 MF H11 2610 0.0 1.008
2360 A 88 MF A1 2611 0.0 72.06679999999997
2361 opls_902 88 MF N11 2612 -0.407377 14.0067
2362 opls_145 88 MF C11 2613 0.682493 12.011
2363 opls_901 88 MF N21 2614 -0.299731 14.0067
2364 opls_157 88 MF C1 2615 0.024669 12.011
2365 opls_156 88 MF H011 2618 0.0 1.008
2366 opls_156 88 MF H012 2619 0.0 1.008
2367 opls_910 88 MF H21 2620 0.0 1.008
2368 A 88 MF A2 2621 0.0 72.06679999999997
2369 opls_902 88 MF N12 2622 -0.407374 14.0067
2370 opls_145 88 MF C12 2623 0.682437 12.011
2371 opls_901 88 MF N22 2624 -0.299729 14.0067
2372 opls_157 88 MF C2 2625 0.024672 12.011
2373 opls_154 88 MF O2 2626 0.0 15.9994
2374 opls_156 88 MF H021 2628 0.0 1.008
2375 opls_156 88 MF H022 2629 0.0 1.008
2376 opls_910 88 MF H31 2630 0.0 1.008
2377 A 88 MF A3 2631 0.0 72.06679999999997
2378 opls_902 88 MF N13 2632 -0.407483 14.0067
2379 opls_145 88 MF C13 2633 0.682492 12.011
2380 opls_901 88 MF N23 2634 -0.299758 14.0067
2381 opls_157 88 MF C3 2635 0.024689 12.011
2382 opls_154 88 MF O3 2636 0.0 15.9994
2383 opls_156 88 MF H031 2638 0.0 1.008
2384 opls_156 88 MF H032 2639 0.0 1.008
2385 opls_910 88 MF H11 2640 0.0 1.008
2386 A 89 MF A1 2641 0.0 72.06679999999997
2387 opls_902 89 MF N11 2642 -0.407377 14.0067
2388 opls_145 89 MF C11 2643 0.682493 12.011
2389 opls_901 89 MF N21 2644 -0.299731 14.0067
2390 opls_157 89 MF C1 2645 0.024669 12.011
2391 opls_154 89 MF O1 2646 0.0 15.9994
2392 opls_156 89 MF H011 2648 0.0 1.008
2393 opls_156 89 MF H012 2649 0.0 1.008
2394 opls_910 89 MF H21 2650 0.0 1.008
2395 A 89 MF A2 2651 0.0 72.06679999999997
2396 opls_902 89 MF N12 2652 -0.407374 14.0067
2397 opls_145 89 MF C12 2653 0.682437 12.011
2398 opls_901 89 MF N22 2654 -0.299729 14.0067
2399 opls_157 89 MF C2 2655 0.024672 12.011
2400 opls_154 89 MF O2 2656 0.0 15.9994
2401 opls_156 89 MF H021 2658 0.0 1.008
2402 opls_156 89 MF H022 2659 0.0 1.008
2403 opls_910 89 MF H31 2660 0.0 1.008
2404 A 89 MF A3 2661 0.0 72.06679999999997
2405 opls_902 89 MF N13 2662 -0.407483 14.0067
2406 opls_145 89 MF C13 2663 0.682492 12.011
2407 opls_901 89 MF N23 2664 -0.299758 14.0067
2408 opls_157 89 MF C3 2665 0.024689 12.011
2409 opls_154 89 MF O3 2666 0.0 15.9994
2410 opls_156 89 MF H031 2668 0.0 1.008
2411 opls_156 89 MF H032 2669 0.0 1.008
2412 opls_910 89 MF H11 2670 0.0 1.008
2413 A 90 MF A1 2671 0.0 72.06679999999997
2414 opls_902 90 MF N11 2672 -0.407377 14.0067
2415 opls_145 90 MF C11 2673 0.682493 12.011
2416 opls_901 90 MF N21 2674 -0.299731 14.0067
2417 opls_157 90 MF C1 2675 0.024669 12.011
2418 opls_154 90 MF O1 2676 0.0 15.9994
2419 opls_156 90 MF H011 2678 0.0 1.008
2420 opls_156 90 MF H012 2679 0.0 1.008
2421 opls_910 90 MF H21 2680 0.0 1.008
2422 A 90 MF A2 2681 0.0 72.06679999999997
2423 opls_902 90 MF N12 2682 -0.407374 14.0067
2424 opls_145 90 MF C12 2683 0.682437 12.011
2425 opls_901 90 MF N22 2684 -0.299729 14.0067
2426 opls_157 90 MF C2 2685 0.024672 12.011
2427 opls_156 90 MF H021 2688 0.0 1.008
2428 opls_156 90 MF H022 2689 0.0 1.008
2429 opls_910 90 MF H31 2690 0.0 1.008
2430 A 90 MF A3 2691 0.0 72.06679999999997
2431 opls_902 90 MF N13 2692 -0.407483 14.0067
2432 opls_145 90 MF C13 2693 0.682492 12.011
2433 opls_901 90 MF N23 2694 -0.299758 14.0067
2434 opls_157 90 MF C3 2695 0.024689 12.011
2435 opls_154 90 MF O3 2696 0.0 15.9994
2436 opls_156 90 MF H031 2698 0.0 1.008
2437 opls_156 90 MF H032 2699 0.0 1.008
2438 opls_910 90 MF H11 2700 0.0 1.008
2439 A 91 MF A1 2701 0.0 72.06679999999997
2440 opls_902 91 MF N11 2702 -0.407377 14.0067
2441 opls_145 91 MF C11 2703 0.682493 12.011
2442 opls_901 91 MF N21 2704 -0.299731 14.0067
2443 opls_157 91 MF C1 2705 0.024669 12.011
2444 opls_154 91 MF O1 2706 0.0 15.9994
2445 opls_155 91 MF H01 2707 0.0 1.008
2446 opls_156 91 MF H011 2708 0.0 1.008
2447 opls_156 91 MF H012 2709 0.0 1.008
2448 opls_910 91 MF H21 2710 0.0 1.008
2449 A 91 MF A2 2711 0.0 72.06679999999997
2450 opls_902 91 MF N12 2712 -0.407374 14.0067
2451 opls_145 91 MF C12 2713 0.682437 12.011
2452 opls_901 91 MF N22 2714 -0.299729 14.0067
2453 opls_157 91 MF C2 2715 0.024672 12.011
2454 opls_154 91 MF O2 2716 0.0 15.9994
2455 opls_156 91 MF H021 2718 0.0 1.008
2456 opls_156 91 MF H022 2719 0.0 1.008
2457 opls_910 91 MF H31 2720 0.0 1.008
2458 A 91 MF A3 2721 0.0 72.06679999999997
2459 opls_902 91 MF N13 2722 -0.407483 14.0067
2460 opls_145 91 MF C13 2723 0.682492 12.011
2461 opls_901 91 MF N23 2724 -0.299758 14.0067
2462 opls_157 91 MF C3 2725 0.024689 12.011
2463 opls_154 91 MF O3 2726 0.0 15.9994
2464 opls_156 91 MF H031 2728 0.0 1.008
2465 opls_156 91 MF H032 2729 0.0 1.008
2466 opls_910 91 MF H11 2730 0.0 1.008
2467 A 92 MF A1 2731 0.0 72.06679999999997
2468 opls_902 92 MF N11 2732 -0.407377 14.0067
2469 opls_145 92 MF C11 2733 0.682493 12.011
2470 opls_901 92 MF N21 2734 -0.299731 14.0067
2471 opls_157 92 MF C1 2735 0.024669 12.011
2472 opls_156 92 MF H011 2738 0.0 1.008
2473 opls_156 92 MF H012 2739 0.0 1.008
2474 opls_910 92 MF H21 2740 0.0 1.008
2475 A 92 MF A2 2741 0.0 72.06679999999997
2476 opls_902 92 MF N12 2742 -0.407374 14.0067
2477 opls_145 92 MF C12 2743 0.682437 12.011
2478 opls_901 92 MF N22 2744 -0.299729 14.0067
2479 opls_157 92 MF C2 2745 0.024672 12.011
2480 opls_154 92 MF O2 2746 0.0 15.9994
2481 opls_156 92 MF H021 2748 0.0 1.008
2482 opls_156 92 MF H022 2749 0.0 1.008
2483 opls_910 92 MF H31 2750 0.0 1.008
2484 A 92 MF A3 2751 0.0 72.06679999999997
2485 opls_902 92 MF N13 2752 -0.407483 14.0067
2486 opls_145 92 MF C13 2753 0.682492 12.011
2487 opls_901 92 MF N23 2754 -0.299758 14.0067
2488 opls_157 92 MF C3 2755 0.024689 12.011
2489 opls_154 92 MF O3 2756 0.0 15.9994
2490 opls_156 92 MF H031 2758 0.0 1.008
2491 opls_156 92 MF H032 2759 0.0 1.008
2492 opls_910 92 MF H11 2760 0.0 1.008
2493 A 93 MF A1 2761 0.0 72.06679999999997
2494 opls_902 93 MF N11 2762 -0.407377 14.0067
2495 opls_145 93 MF C11 2763 0.682493 12.011
2496 opls_901 93 MF N21 2764 -0.299731 14.0067
2497 opls_157 93 MF C1 2765 0.024669 12.011
2498 opls_154 93 MF O1 2766 0.0 15.9994
2499 opls_156 93 MF H011 2768 0.0 1.008
2500 opls_156 93 MF H012 2769 0.0 1.008
2501 opls_910 93 MF H21 2770 0.0 1.008
2502 A 93 MF A2 2771 0.0 72.06679999999997
2503 opls_902 93 MF N12 2772 -0.407374 14.0067
2504 opls_145 93 MF C12 2773 0.682437 12.011
2505 opls_901 93 MF N22 2774 -0.299729 14.0067
2506 opls_157 93 MF C2 2775 0.024672 12.011
2507 opls_154 93 MF O2 2776 0.0 15.9994
2508 opls_156 93 MF H021 2778 0.0 1.008
2509 opls_156 93 MF H022 2779 0.0 1.008
2510 opls_910 93 MF H31 2780 0.0 1.008
2511 A 93 MF A3 2781 0.0 72.06679999999997
2512 opls_902 93 MF N13 2782 -0.407483 14.0067
2513 opls_145 93 MF C13 2783 0.682492 12.011
2514 opls_901 93 MF N23 2784 -0.299758 14.0067
2515 opls_157 93 MF C3 2785 0.024689 12.011
2516 opls_154 93 MF O3 2786 0.0 15.9994
2517 opls_156 93 MF H031 2788 0.0 1.008
2518 opls_156 93 MF H032 2789 0.0 1.008
2519 opls_910 93 MF H11 2790 0.0 1.008
2520 A 94 MF A1 2791 0.0 72.06679999999997
2521 opls_902 94 MF N11 2792 -0.407377 14.0067
2522 opls_145 94 MF C11 2793 0.682493 12.011
2523 opls_901 94 MF N21 2794 -0.299731 14.0067
2524 opls_157 94 MF C1 2795 0.024669 12.011
2525 opls_154 94 MF O1 2796 0.0 15.9994
2526 opls_156 94 MF H011 2798 0.0 1.008
2527 opls_156 94 MF H012 2799 0.0 1.008
2528 opls_910 94 MF H21 2800 0.0 1.008
2529 A 94 MF A2 2801 0.0 72.06679999999997
2530 opls_902 94 MF N12 2802 -0.407374 14.0067
2531 opls_145 94 MF C12 2803 0.682437 12.011
2532 opls_901 94 MF N22 2804 -0.299729 14.0067
2533 opls_157 94 MF C2 2805 0.024672 12.011
2534 opls_156 94 MF H021 2808 0.0 1.008
2535 opls_156 94 MF H022 2809 0.0 1.008
2536 opls_910 94 MF H31 2810 0.0 1.008
2537 A 94 MF A3 2811 0.0 72.06679999999997
2538 opls_902 94 MF N13 2812 -0.407483 14.0067
2539 opls_145 94 MF C13 2813 0.682492 12.011
2540 opls_901 94 MF N23 2814 -0.299758 14.0067
2541 opls_157 94 MF C3 2815 0.024689 12.011
2542 opls_154 94 MF O3 2816 0.0 15.9994
2543 opls_156 94 MF H031 2818 0.0 1.008
2544 opls_156 94 MF H032 2819 0.0 1.008
2545 opls_910 94 MF H11 2820 0.0 1.008
2546 A 95 MF A1 2821 0.0 72.06679999999997
2547 opls_902 95 MF N11 2822 -0.407377 14.0067
2548 opls_145 95 MF C11 2823 0.682493 12.011
2549 opls_901 95 MF N21 2824 -0.299731 14.0067
2550 opls_157 95 MF C1 2825 0.024669 12.011
2551 opls_154 95 MF O1 2826 0.0 15.9994
2552 opls_156 95 MF H011 2828 0.0 1.008
2553 opls_156 95 MF H012 2829 0.0 1.008
2554 opls_910 95 MF H21 2830 0.0 1.008
2555 A 95 MF A2 2831 0.0 72.06679999999997
2556 opls_902 95 MF N12 2832 -0.407374 14.0067
2557 opls_145 95 MF C12 2833 0.682437 12.011
2558 opls_901 95 MF N22 2834 -0.299729 14.0067
2559 opls_157 95 MF C2 2835 0.024672 12.011
2560 opls_154 95 MF O2 2836 0.0 15.9994
2561 opls_156 95 MF H021 2838 0.0 1.008
2562 opls_156 95 MF H022 2839 0.0 1.008
2563 opls_910 95 MF H31 2840 0.0 1.008
2564 A 95 MF A3 2841 0.0 72.06679999999997
2565 opls_902 95 MF N13 2842 -0.407483 14.0067
2566 opls_145 95 MF C13 2843 0.682492 12.011
2567 opls_901 95 MF N23 2844 -0.299758 14.0067
2568 opls_157 95 MF C3 2845 0.024689 12.011
2569 opls_154 95 MF O3 2846 0.0 15.9994
2570 opls_156 95 MF H031 2848 0.0 1.008
2571 opls_156 95 MF H032 2849 0.0 1.008
2572 opls_910 95 MF H11 2850 0.0 1.008
2573 A 96 MF A1 2851 0.0 72.06679999999997
2574 opls_902 96 MF N11 2852 -0.407377 14.0067
2575 opls_145 96 MF C11 2853 0.682493 12.011
2576 opls_901 96 MF N21 2854 -0.299731 14.0067
2577 opls_157 96 MF C1 2855 0.024669 12.011
2578 opls_154 96 MF O1 2856 0.0 15.9994
2579 opls_155 96 MF H01 2857 0.0 1.008
2580 opls_156 96 MF H011 2858 0.0 1.008
2581 opls_156 96 MF H012 2859 0.0 1.008
2582 opls_910 96 MF H21 2860 0.0 1.008
2583 A 96 MF A2 2861 0.0 72.06679999999997
2584 opls_902 96 MF N12 2862 -0.407374 14.0067
2585 opls_145 96 MF C12 2863 0.682437 12.011
2586 opls_901 96 MF N22 2864 -0.299729 14.0067
2587 opls_157 96 MF C2 2865 0.024672 12.011
2588 opls_154 96 MF O2 2866 0.0 15.9994
2589 opls_155 96 MF H02 2867 0.0 1.008
2590 opls_156 96 MF H021 2868 0.0 1.008
2591 opls_156 96 MF H022 2869 0.0 1.008
2592 opls_910 96 MF H31 2870 0.0 1.008
2593 A 96 MF A3 2871 0.0 72.06679999999997
2594 opls_902 96 MF N13 2872 -0.407483 14.0067
2595 opls_145 96 MF C13 2873 0.682492 12.011
2596 opls_901 96 MF N23 2874 -0.299758 14.0067
2597 opls_157 96 MF C3 2875 0.024689 12.011
2598 opls_154 96 MF O3 2876 0.0 15.9994
2599 opls_156 96 MF H031 2878 0.0 1.008
2600 opls_156 96 MF H032 2879 0.0 1.008
2601 opls_910 96 MF H11 2880 0.0 1.008
2602 A 97 MF A1 2881 0.0 72.06679999999997
2603 opls_902 97 MF N11 2882 -0.407377 14.0067
2604 opls_145 97 MF C11 2883 0.682493 12.011
2605 opls_901 97 MF N21 2884 -0.299731 14.0067
2606 opls_157 97 MF C1 2885 0.024669 12.011
2607 opls_154 97 MF O1 2886 0.0 15.9994
2608 opls_156 97 MF H011 2888 0.0 1.008
2609 opls_156 97 MF H012 2889 0.0 1.008
2610 opls_910 97 MF H21 2890 0.0 1.008
2611 A 97 MF A2 2891 0.0 72.06679999999997
2612 opls_902 97 MF N12 2892 -0.407374 14.0067
2613 opls_145 97 MF C12 2893 0.682437 12.011
2614 opls_901 97 MF N22 2894 -0.299729 14.0067
2615 opls_157 97 MF C2 2895 0.024672 12.011
2616 opls_154 97 MF O2 2896 0.0 15.9994
2617 opls_156 97 MF H021 2898 0.0 1.008
2618 opls_156 97 MF H022 2899 0.0 1.008
2619 opls_910 97 MF H31 2900 0.0 1.008
2620 A 97 MF A3 2901 0.0 72.06679999999997
2621 opls_902 97 MF N13 2902 -0.407483 14.0067
2622 opls_145 97 MF C13 2903 0.682492 12.011
2623 opls_901 97 MF N23 2904 -0.299758 14.0067
2624 opls_157 97 MF C3 2905 0.024689 12.011
2625 opls_154 97 MF O3 2906 0.0 15.9994
2626 opls_156 97 MF H031 2908 0.0 1.008
2627 opls_156 97 MF H032 2909 0.0 1.008
2628 opls_910 97 MF H11 2910 0.0 1.008
2629 A 98 MF A1 2911 0.0 72.06679999999997
2630 opls_902 98 MF N11 2912 -0.407377 14.0067
2631 opls_145 98 MF C11 2913 0.682493 12.011
2632 opls_901 98 MF N21 2914 -0.299731 14.0067
2633 opls_157 98 MF C1 2915 0.024669 12.011
2634 opls_156 98 MF H011 2918 0.0 1.008
2635 opls_156 98 MF H012 2919 0.0 1.008
2636 opls_910 98 MF H21 2920 0.0 1.008
2637 A 98 MF A2 2921 0.0 72.06679999999997
2638 opls_902 98 MF N12 2922 -0.407374 14.0067
2639 opls_145 98 MF C12 2923 0.682437 12.011
2640 opls_901 98 MF N22 2924 -0.299729 14.0067
2641 opls_157 98 MF C2 2925 0.024672 12.011
2642 opls_154 98 MF O2 2926 0.0 15.9994
2643 opls_156 98 MF H021 2928 0.0 1.008
2644 opls_156 98 MF H022 2929 0.0 1.008
2645 opls_910 98 MF H31 2930 0.0 1.008
2646 A 98 MF A3 2931 0.0 72.06679999999997
2647 opls_902 98 MF N13 2932 -0.407483 14.0067
2648 opls_145 98 MF C13 2933 0.682492 12.011
2649 opls_901 98 MF N23 2934 -0.299758 14.0067
2650 opls_157 98 MF C3 2935 0.024689 12.011
2651 opls_154 98 MF O3 2936 0.0 15.9994
2652 opls_156 98 MF H031 2938 0.0 1.008
2653 opls_156 98 MF H032 2939 0.0 1.008
2654 opls_910 98 MF H11 2940 0.0 1.008
2655 A 99 MF A1 2941 0.0 72.06679999999997
2656 opls_902 99 MF N11 2942 -0.407377 14.0067
2657 opls_145 99 MF C11 2943 0.682493 12.011
2658 opls_901 99 MF N21 2944 -0.299731 14.0067
2659 opls_157 99 MF C1 2945 0.024669 12.011
2660 opls_154 99 MF O1 2946 0.0 15.9994
2661 opls_156 99 MF H011 2948 0.0 1.008
2662 opls_156 99 MF H012 2949 0.0 1.008
2663 opls_910 99 MF H21 2950 0.0 1.008
2664 A 99 MF A2 2951 0.0 72.06679999999997
2665 opls_902 99 MF N12 2952 -0.407374 14.0067
2666 opls_145 99 MF C12 2953 0.682437 12.011
2667 opls_901 99 MF N22 2954 -0.299729 14.0067
2668 opls_157 99 MF C2 2955 0.024672 12.011
2669 opls_154 99 MF O2 2956 0.0 15.9994
2670 opls_156 99 MF H021 2958 0.0 1.008
2671 opls_156 99 MF H022 2959 0.0 1.008
2672 opls_910 99 MF H31 2960 0.0 1.008
2673 A 99 MF A3 2961 0.0 72.06679999999997
2674 opls_902 99 MF N13 2962 -0.407483 14.0067
2675 opls_145 99 MF C13 2963 0.682492 12.011
2676 opls_901 99 MF N23 2964 -0.299758 14.0067
2677 opls_157 99 MF C3 2965 0.024689 12.011
2678 opls_154 99 MF O3 2966 0.0 15.9994
2679 opls_155 99 MF H03 2967 0.0 1.008
2680 opls_156 99 MF H031 2968 0.0 1.008
2681 opls_156 99 MF H032 2969 0.0 1.008
2682 opls_910 99 MF H11 2970 0.0 1.008
2683 A 100 MF A1 2971 0.0 72.06679999999997
2684 opls_902 100 MF N11 2972 -0.407377 14.0067
2685 opls_145 100 MF C11 2973 0.682493 12.011
2686 opls_901 100 MF N21 2974 -0.299731 14.0067
2687 opls_157 100 MF C1 2975 0.024669 12.011
2688 opls_154 100 MF O1 2976 0.0 15.9994
2689 opls_156 100 MF H011 2978 0.0 1.008
2690 opls_156 100 MF H012 2979 0.0 1.008
2691 opls_910 100 MF H21 2980 0.0 1.008
2692 A 100 MF A2 2981 0.0 72.06679999999997
2693 opls_902 100 MF N12 2982 -0.407374 14.0067
2694 opls_145 100 MF C12 2983 0.682437 12.011
2695 opls_901 100 MF N22 2984 -0.299729 14.0067
2696 opls_157 100 MF C2 2985 0.024672 12.011
2697 opls_156 100 MF H021 2988 0.0 1.008
2698 opls_156 100 MF H022 2989 0.0 1.008
2699 opls_910 100 MF H31 2990 0.0 1.008
2700 A 100 MF A3 2991 0.0 72.06679999999997
2701 opls_902 100 MF N13 2992 -0.407483 14.0067
2702 opls_145 100 MF C13 2993 0.682492 12.011
2703 opls_901 100 MF N23 2994 -0.299758 14.0067
2704 opls_157 100 MF C3 2995 0.024689 12.011
2705 opls_156 100 MF H031 2998 0.0 1.008
2706 opls_156 100 MF H032 2999 0.0 1.008
2707 opls_910 100 MF H11 3000 0.0 1.008
2708 A 101 MF A1 3001 0.0 72.06679999999997
2709 opls_902 101 MF N11 3002 -0.407377 14.0067
2710 opls_145 101 MF C11 3003 0.682493 12.011
2711 opls_901 101 MF N21 3004 -0.299731 14.0067
2712 opls_157 101 MF C1 3005 0.024669 12.011
2713 opls_154 101 MF O1 3006 0.0 15.9994
2714 opls_156 101 MF H011 3008 0.0 1.008
2715 opls_156 101 MF H012 3009 0.0 1.008
2716 opls_910 101 MF H21 3010 0.0 1.008
2717 A 101 MF A2 3011 0.0 72.06679999999997
2718 opls_902 101 MF N12 3012 -0.407374 14.0067
2719 opls_145 101 MF C12 3013 0.682437 12.011
2720 opls_901 101 MF N22 3014 -0.299729 14.0067
2721 opls_157 101 MF C2 3015 0.024672 12.011
2722 opls_154 101 MF O2 3016 0.0 15.9994
2723 opls_156 101 MF H021 3018 0.0 1.008
2724 opls_156 101 MF H022 3019 0.0 1.008
2725 opls_910 101 MF H31 3020 0.0 1.008
2726 A 101 MF A3 3021 0.0 72.06679999999997
2727 opls_902 101 MF N13 3022 -0.407483 14.0067
2728 opls_145 101 MF C13 3023 0.682492 12.011
2729 opls_901 101 MF N23 3024 -0.299758 14.0067
2730 opls_157 101 MF C3 3025 0.024689 12.011
2731 opls_156 101 MF H031 3028 0.0 1.008
2732 opls_156 101 MF H032 3029 0.0 1.008
2733 opls_910 101 MF H11 3030 0.0 1.008
2734 A 102 MF A1 3031 0.0 72.06679999999997
2735 opls_902 102 MF N11 3032 -0.407377 14.0067
2736 opls_145 102 MF C11 3033 0.682493 12.011
2737 opls_901 102 MF N21 3034 -0.299731 14.0067
2738 opls_157 102 MF C1 3035 0.024669 12.011
2739 opls_154 102 MF O1 3036 0.0 15.9994
2740 opls_156 102 MF H011 3038 0.0 1.008
2741 opls_156 102 MF H012 3039 0.0 1.008
2742 opls_910 102 MF H21 3040 0.0 1.008
2743 A 102 MF A2 3041 0.0 72.06679999999997
2744 opls_902 102 MF N12 3042 -0.407374 14.0067
2745 opls_145 102 MF C12 3043 0.682437 12.011
2746 opls_901 102 MF N22 3044 -0.299729 14.0067
2747 opls_157 102 MF C2 3045 0.024672 12.011
2748 opls_154 102 MF O2 3046 0.0 15.9994
2749 opls_156 102 MF H021 3048 0.0 1.008
2750 opls_156 102 MF H022 3049 0.0 1.008
2751 opls_910 102 MF H31 3050 0.0 1.008
2752 A 102 MF A3 3051 0.0 72.06679999999997
2753 opls_902 102 MF N13 3052 -0.407483 14.0067
2754 opls_145 102 MF C13 3053 0.682492 12.011
2755 opls_901 102 MF N23 3054 -0.299758 14.0067
2756 opls_157 102 MF C3 3055 0.024689 12.011
2757 opls_154 102 MF O3 3056 0.0 15.9994
2758 opls_155 102 MF H03 3057 0.0 1.008
2759 opls_156 102 MF H031 3058 0.0 1.008
2760 opls_156 102 MF H032 3059 0.0 1.008
2761 opls_910 102 MF H11 3060 0.0 1.008
2762 A 103 MF A1 3061 0.0 72.06679999999997
2763 opls_902 103 MF N11 3062 -0.407377 14.0067
2764 opls_145 103 MF C11 3063 0.682493 12.011
2765 opls_901 103 MF N21 3064 -0.299731 14.0067
2766 opls_157 103 MF C1 3065 0.024669 12.011
2767 opls_154 103 MF O1 3066 0.0 15.9994
2768 opls_156 103 MF H011 3068 0.0 1.008
2769 opls_156 103 MF H012 3069 0.0 1.008
2770 opls_910 103 MF H21 3070 0.0 1.008
2771 A 103 MF A2 3071 0.0 72.06679999999997
2772 opls_902 103 MF N12 3072 -0.407374 14.0067
2773 opls_145 103 MF C12 3073 0.682437 12.011
2774 opls_901 103 MF N22 3074 -0.299729 14.0067
2775 opls_157 103 MF C2 3075 0.024672 12.011
2776 opls_154 103 MF O2 3076 0.0 15.9994
2777 opls_156 103 MF H021 3078 0.0 1.008
2778 opls_156 103 MF H022 3079 0.0 1.008
2779 opls_910 103 MF H31 3080 0.0 1.008
2780 A 103 MF A3 3081 0.0 72.06679999999997
2781 opls_902 103 MF N13 3082 -0.407483 14.0067
2782 opls_145 103 MF C13 3083 0.682492 12.011
2783 opls_901 103 MF N23 3084 -0.299758 14.0067
2784 opls_157 103 MF C3 3085 0.024689 12.011
2785 opls_156 103 MF H031 3088 0.0 1.008
2786 opls_156 103 MF H032 3089 0.0 1.008
2787 opls_910 103 MF H11 3090 0.0 1.008
2788 A 104 MF A1 3091 0.0 72.06679999999997
2789 opls_902 104 MF N11 3092 -0.407377 14.0067
2790 opls_145 104 MF C11 3093 0.682493 12.011
2791 opls_901 104 MF N21 3094 -0.299731 14.0067
2792 opls_157 104 MF C1 3095 0.024669 12.011
2793 opls_154 104 MF O1 3096 0.0 15.9994
2794 opls_156 104 MF H011 3098 0.0 1.008
2795 opls_156 104 MF H012 3099 0.0 1.008
2796 opls_910 104 MF H21 3100 0.0 1.008
2797 A 104 MF A2 3101 0.0 72.06679999999997
2798 opls_902 104 MF N12 3102 -0.407374 14.0067
2799 opls_145 104 MF C12 3103 0.682437 12.011
2800 opls_901 104 MF N22 3104 -0.299729 14.0067
2801 opls_157 104 MF C2 3105 0.024672 12.011
2802 opls_154 104 MF O2 3106 0.0 15.9994
2803 opls_156 104 MF H021 3108 0.0 1.008
2804 opls_156 104 MF H022 3109 0.0 1.008
2805 opls_910 104 MF H31 3110 0.0 1.008
2806 A 104 MF A3 3111 0.0 72.06679999999997
2807 opls_902 104 MF N13 3112 -0.407483 14.0067
2808 opls_145 104 MF C13 3113 0.682492 12.011
2809 opls_901 104 MF N23 3114 -0.299758 14.0067
2810 opls_157 104 MF C3 3115 0.024689 12.011
2811 opls_154 104 MF O3 3116 0.0 15.9994
2812 opls_156 104 MF H031 3118 0.0 1.008
2813 opls_156 104 MF H032 3119 0.0 1.008
2814 opls_910 104 MF H11 3120 0.0 1.008
2815 A 105 MF A1 3121 0.0 72.06679999999997
2816 opls_902 105 MF N11 3122 -0.407377 14.0067
2817 opls_145 105 MF C11 3123 0.682493 12.011
2818 opls_901 105 MF N21 3124 -0.299731 14.0067
2819 opls_157 105 MF C1 3125 0.024669 12.011
2820 opls_154 105 MF O1 3126 0.0 15.9994
2821 opls_156 105 MF H011 3128 0.0 1.008
2822 opls_156 105 MF H012 3129 0.0 1.008
2823 opls_910 105 MF H21 3130 0.0 1.008
2824 A 105 MF A2 3131 0.0 72.06679999999997
2825 opls_902 105 MF N12 3132 -0.407374 14.0067
2826 opls_145 105 MF C12 3133 0.682437 12.011
2827 opls_901 105 MF N22 3134 -0.299729 14.0067
2828 opls_157 105 MF C2 3135 0.024672 12.011
2829 opls_156 105 MF H021 3138 0.0 1.008
2830 opls_156 105 MF H022 3139 0.0 1.008
2831 opls_910 105 MF H31 3140 0.0 1.008
2832 A 105 MF A3 3141 0.0 72.06679999999997
2833 opls_902 105 MF N13 3142 -0.407483 14.0067
2834 opls_145 105 MF C13 3143 0.682492 12.011
2835 opls_901 105 MF N23 3144 -0.299758 14.0067
2836 opls_157 105 MF C3 3145 0.024689 12.011
2837 opls_154 105 MF O3 3146 0.0 15.9994
2838 opls_156 105 MF H031 3148 0.0 1.008
2839 opls_156 105 MF H032 3149 0.0 1.008
2840 opls_910 105 MF H11 3150 0.0 1.008
2841 A 106 MF A1 3151 0.0 72.06679999999997
2842 opls_902 106 MF N11 3152 -0.407377 14.0067
2843 opls_145 106 MF C11 3153 0.682493 12.011
2844 opls_901 106 MF N21 3154 -0.299731 14.0067
2845 opls_157 106 MF C1 3155 0.024669 12.011
2846 opls_154 106 MF O1 3156 0.0 15.9994
2847 opls_156 106 MF H011 3158 0.0 1.008
2848 opls_156 106 MF H012 3159 0.0 1.008
2849 opls_910 106 MF H21 3160 0.0 1.008
2850 A 106 MF A2 3161 0.0 72.06679999999997
2851 opls_902 106 MF N12 3162 -0.407374 14.0067
2852 opls_145 106 MF C12 3163 0.682437 12.011
2853 opls_901 106 MF N22 3164 -0.299729 14.0067
2854 opls_157 106 MF C2 3165 0.024672 12.011
2855 opls_156 106 MF H021 3168 0.0 1.008
2856 opls_156 106 MF H022 3169 0.0 1.008
2857 opls_910 106 MF H31 3170 0.0 1.008
2858 A 106 MF A3 3171 0.0 72.06679999999997
2859 opls_902 106 MF N13 3172 -0.407483 14.0067
2860 opls_145 106 MF C13 3173 0.682492 12.011
2861 opls_901 106 MF N23 3174 -0.299758 14.0067
2862 opls_157 106 MF C3 3175 0.024689 12.011
2863 opls_154 106 MF O3 3176 0.0 15.9994
2864 opls_156 106 MF H031 3178 0.0 1.008
2865 opls_156 106 MF H032 3179 0.0 1.008
2866 opls_910 106 MF H11 3180 0.0 1.008
2867 A 107 MF A1 3181 0.0 72.06679999999997
2868 opls_902 107 MF N11 3182 -0.407377 14.0067
2869 opls_145 107 MF C11 3183 0.682493 12.011
2870 opls_901 107 MF N21 3184 -0.299731 14.0067
2871 opls_157 107 MF C1 3185 0.024669 12.011
2872 opls_156 107 MF H011 3188 0.0 1.008
2873 opls_156 107 MF H012 3189 0.0 1.008
2874 opls_910 107 MF H21 3190 0.0 1.008
2875 A 107 MF A2 3191 0.0 72.06679999999997
2876 opls_902 107 MF N12 3192 -0.407374 14.0067
2877 opls_145 107 MF C12 3193 0.682437 12.011
2878 opls_901 107 MF N22 3194 -0.299729 14.0067
2879 opls_157 107 MF C2 3195 0.024672 12.011
2880 opls_156 107 MF H021 3198 0.0 1.008
2881 opls_156 107 MF H022 3199 0.0 1.008
2882 opls_910 107 MF H31 3200 0.0 1.008
2883 A 107 MF A3 3201 0.0 72.06679999999997
2884 opls_902 107 MF N13 3202 -0.407483 14.0067
2885 opls_145 107 MF C13 3203 0.682492 12.011
2886 opls_901 107 MF N23 3204 -0.299758 14.0067
2887 opls_157 107 MF C3 3205 0.024689 12.011
2888 opls_156 107 MF H031 3208 0.0 1.008
2889 opls_156 107 MF H032 3209 0.0 1.008
2890 opls_910 107 MF H11 3210 0.0 1.008
2891 A 108 MF A1 3211 0.0 72.06679999999997
2892 opls_902 108 MF N11 3212 -0.407377 14.0067
2893 opls_145 108 MF C11 3213 0.682493 12.011
2894 opls_901 108 MF N21 3214 -0.299731 14.0067
2895 opls_157 108 MF C1 3215 0.024669 12.011
2896 opls_154 108 MF O1 3216 0.0 15.9994
2897 opls_156 108 MF H011 3218 0.0 1.008
2898 opls_156 108 MF H012 3219 0.0 1.008
2899 opls_910 108 MF H21 3220 0.0 1.008
2900 A 108 MF A2 3221 0.0 72.06679999999997
2901 opls_902 108 MF N12 3222 -0.407374 14.0067
2902 opls_145 108 MF C12 3223 0.682437 12.011
2903 opls_901 108 MF N22 3224 -0.299729 14.0067
2904 opls_157 108 MF C2 3225 0.024672 12.011
2905 opls_156 108 MF H021 3228 0.0 1.008
2906 opls_156 108 MF H022 3229 0.0 1.008
2907 opls_910 108 MF H31 3230 0.0 1.008
2908 A 108 MF A3 3231 0.0 72.06679999999997
2909 opls_902 108 MF N13 3232 -0.407483 14.0067
2910 opls_145 108 MF C13 3233 0.682492 12.011
2911 opls_901 108 MF N23 3234 -0.299758 14.0067
2912 opls_157 108 MF C3 3235 0.024689 12.011
2913 opls_154 108 MF O3 3236 0.0 15.9994
2914 opls_156 108 MF H031 3238 0.0 1.008
2915 opls_156 108 MF H032 3239 0.0 1.008
2916 opls_910 108 MF H11 3240 0.0 1.008
2917 A 109 MF A1 3241 0.0 72.06679999999997
2918 opls_902 109 MF N11 3242 -0.407377 14.0067
2919 opls_145 109 MF C11 3243 0.682493 12.011
2920 opls_901 109 MF N21 3244 -0.299731 14.0067
2921 opls_157 109 MF C1 3245 0.024669 12.011
2922 opls_154 109 MF O1 3246 0.0 15.9994
2923 opls_156 109 MF H011 3248 0.0 1.008
2924 opls_156 109 MF H012 3249 0.0 1.008
2925 opls_910 109 MF H21 3250 0.0 1.008
2926 A 109 MF A2 3251 0.0 72.06679999999997
2927 opls_902 109 MF N12 3252 -0.407374 14.0067
2928 opls_145 109 MF C12 3253 0.682437 12.011
2929 opls_901 109 MF N22 3254 -0.299729 14.0067
2930 opls_157 109 MF C2 3255 0.024672 12.011
2931 opls_154 109 MF O2 3256 0.0 15.9994
2932 opls_156 109 MF H021 3258 0.0 1.008
2933 opls_156 109 MF H022 3259 0.0 1.008
2934 opls_910 109 MF H31 3260 0.0 1.008
2935 A 109 MF A3 3261 0.0 72.06679999999997
2936 opls_902 109 MF N13 3262 -0.407483 14.0067
2937 opls_145 109 MF C13 3263 0.682492 12.011
2938 opls_901 109 MF N23 3264 -0.299758 14.0067
2939 opls_157 109 MF C3 3265 0.024689 12.011
2940 opls_154 109 MF O3 3266 0.0 15.9994
2941 opls_156 109 MF H031 3268 0.0 1.008
2942 opls_156 109 MF H032 3269 0.0 1.008
2943 opls_910 109 MF H11 3270 0.0 1.008
2944 A 110 MF A1 3271 0.0 72.06679999999997
2945 opls_902 110 MF N11 3272 -0.407377 14.0067
2946 opls_145 110 MF C11 3273 0.682493 12.011
2947 opls_901 110 MF N21 3274 -0.299731 14.0067
2948 opls_157 110 MF C1 3275 0.024669 12.011
2949 opls_154 110 MF O1 3276 0.0 15.9994
2950 opls_156 110 MF H011 3278 0.0 1.008
2951 opls_156 110 MF H012 3279 0.0 1.008
2952 opls_910 110 MF H21 3280 0.0 1.008
2953 A 110 MF A2 3281 0.0 72.06679999999997
2954 opls_902 110 MF N12 3282 -0.407374 14.0067
2955 opls_145 110 MF C12 3283 0.682437 12.011
2956 opls_901 110 MF N22 3284 -0.299729 14.0067
2957 opls_157 110 MF C2 3285 0.024672 12.011
2958 opls_154 110 MF O2 3286 0.0 15.9994
2959 opls_156 110 MF H021 3288 0.0 1.008
2960 opls_156 110 MF H022 3289 0.0 1.008
2961 opls_910 110 MF H31 3290 0.0 1.008
2962 A 110 MF A3 3291 0.0 72.06679999999997
2963 opls_902 110 MF N13 3292 -0.407483 14.0067
2964 opls_145 110 MF C13 3293 0.682492 12.011
2965 opls_901 110 MF N23 3294 -0.299758 14.0067
2966 opls_157 110 MF C3 3295 0.024689 12.011
2967 opls_154 110 MF O3 3296 0.0 15.9994
2968 opls_156 110 MF H031 3298 0.0 1.008
2969 opls_156 110 MF H032 3299 0.0 1.008
2970 opls_910 110 MF H11 3300 0.0 1.008
2971 A 111 MF A1 3301 0.0 72.06679999999997
2972 opls_902 111 MF N11 3302 -0.407377 14.0067
2973 opls_145 111 MF C11 3303 0.682493 12.011
2974 opls_901 111 MF N21 3304 -0.299731 14.0067
2975 opls_157 111 MF C1 3305 0.024669 12.011
2976 opls_154 111 MF O1 3306 0.0 15.9994
2977 opls_156 111 MF H011 3308 0.0 1.008
2978 opls_156 111 MF H012 3309 0.0 1.008
2979 opls_910 111 MF H21 3310 0.0 1.008
2980 A 111 MF A2 3311 0.0 72.06679999999997
2981 opls_902 111 MF N12 3312 -0.407374 14.0067
2982 opls_145 111 MF C12 3313 0.682437 12.011
2983 opls_901 111 MF N22 3314 -0.299729 14.0067
2984 opls_157 111 MF C2 3315 0.024672 12.011
2985 opls_154 111 MF O2 3316 0.0 15.9994
2986 opls_156 111 MF H021 3318 0.0 1.008
2987 opls_156 111 MF H022 3319 0.0 1.008
2988 opls_910 111 MF H31 3320 0.0 1.008
2989 A 111 MF A3 3321 0.0 72.06679999999997
2990 opls_902 111 MF N13 3322 -0.407483 14.0067
2991 opls_145 111 MF C13 3323 0.682492 12.011
2992 opls_901 111 MF N23 3324 -0.299758 14.0067
2993 opls_157 111 MF C3 3325 0.024689 12.011
2994 opls_154 111 MF O3 3326 0.0 15.9994
2995 opls_156 111 MF H031 3328 0.0 1.008
2996 opls_156 111 MF H032 3329 0.0 1.008
2997 opls_910 111 MF H11 3330 0.0 1.008
2998 A 112 MF A1 3331 0.0 72.06679999999997
2999 opls_902 112 MF N11 3332 -0.407377 14.0067
3000 opls_145 112 MF C11 3333 0.682493 12.011
3001 opls_901 112 MF N21 3334 -0.299731 14.0067
3002 opls_157 112 MF C1 3335 0.024669 12.011
3003 opls_154 112 MF O1 3336 0.0 15.9994
3004 opls_156 112 MF H011 3338 0.0 1.008
3005 opls_156 112 MF H012 3339 0.0 1.008
3006 opls_910 112 MF H21 3340 0.0 1.008
3007 A 112 MF A2 3341 0.0 72.06679999999997
3008 opls_902 112 MF N12 3342 -0.407374 14.0067
3009 opls_145 112 MF C12 3343 0.682437 12.011
3010 opls_901 112 MF N22 3344 -0.299729 14.0067
3011 opls_157 112 MF C2 3345 0.024672 12.011
3012 opls_156 112 MF H021 3348 0.0 1.008
3013 opls_156 112 MF H022 3349 0.0 1.008
3014 opls_910 112 MF H31 3350 0.0 1.008
3015 A 112 MF A3 3351 0.0 72.06679999999997
3016 opls_902 112 MF N13 3352 -0.407483 14.0067
3017 opls_145 112 MF C13 3353 0.682492 12.011
3018 opls_901 112 MF N23 3354 -0.299758 14.0067
3019 opls_157 112 MF C3 3355 0.024689 12.011
3020 opls_156 112 MF H031 3358 0.0 1.008
3021 opls_156 112 MF H032 3359 0.0 1.008
3022 opls_910 112 MF H11 3360 0.0 1.008
3023 A 113 MF A1 3361 0.0 72.06679999999997
3024 opls_902 113 MF N11 3362 -0.407377 14.0067
3025 opls_145 113 MF C11 3363 0.682493 12.011
3026 opls_901 113 MF N21 3364 -0.299731 14.0067
3027 opls_157 113 MF C1 3365 0.024669 12.011
3028 opls_156 113 MF H011 3368 0.0 1.008
3029 opls_156 113 MF H012 3369 0.0 1.008
3030 opls_910 113 MF H21 3370 0.0 1.008
3031 A 113 MF A2 3371 0.0 72.06679999999997
3032 opls_902 113 MF N12 3372 -0.407374 14.0067
3033 opls_145 113 MF C12 3373 0.682437 12.011
3034 opls_901 113 MF N22 3374 -0.299729 14.0067
3035 opls_157 113 MF C2 3375 0.024672 12.011
3036 opls_154 113 MF O2 3376 0.0 15.9994
3037 opls_156 113 MF H021 3378 0.0 1.008
3038 opls_156 113 MF H022 3379 0.0 1.008
3039 opls_910 113 MF H31 3380 0.0 1.008
3040 A 113 MF A3 3381 0.0 72.06679999999997
3041 opls_902 113 MF N13 3382 -0.407483 14.0067
3042 opls_145 113 MF C13 3383 0.682492 12.011
3043 opls_901 113 MF N23 3384 -0.299758 14.0067
3044 opls_157 113 MF C3 3385 0.024689 12.011
3045 opls_156 113 MF H031 3388 0.0 1.008
3046 opls_156 113 MF H032 3389 0.0 1.008
3047 opls_910 113 MF H11 3390 0.0 1.008
3048 A 114 MF A1 3391 0.0 72.06679999999997
3049 opls_902 114 MF N11 3392 -0.407377 14.0067
3050 opls_145 114 MF C11 3393 0.682493 12.011
3051 opls_901 114 MF N21 3394 -0.299731 14.0067
3052 opls_157 114 MF C1 3395 0.024669 12.011
3053 opls_156 114 MF H011 3398 0.0 1.008
3054 opls_156 114 MF H012 3399 0.0 1.008
3055 opls_910 114 MF H21 3400 0.0 1.008
3056 A 114 MF A2 3401 0.0 72.06679999999997
3057 opls_902 114 MF N12 3402 -0.407374 14.0067
3058 opls_145 114 MF C12 3403 0.682437 12.011
3059 opls_901 114 MF N22 3404 -0.299729 14.0067
3060 opls_157 114 MF C2 3405 0.024672 12.011
3061 opls_154 114 MF O2 3406 0.0 15.9994
3062 opls_156 114 MF H021 3408 0.0 1.008
3063 opls_156 114 MF H022 3409 0.0 1.008
3064 opls_910 114 MF H31 3410 0.0 1.008
3065 A 114 MF A3 3411 0.0 72.06679999999997
3066 opls_902 114 MF N13 3412 -0.407483 14.0067
3067 opls_145 114 MF C13 3413 0.682492 12.011
3068 opls_901 114 MF N23 3414 -0.299758 14.0067
3069 opls_157 114 MF C3 3415 0.024689 12.011
3070 opls_154 114 MF O3 3416 0.0 15.9994
3071 opls_156 114 MF H031 3418 0.0 1.008
3072 opls_156 114 MF H032 3419 0.0 1.008
3073 opls_910 114 MF H11 3420 0.0 1.008
3074 A 115 MF A1 3421 0.0 72.06679999999997
3075 opls_902 115 MF N11 3422 -0.407377 14.0067
3076 opls_145 115 MF C11 3423 0.682493 12.011
3077 opls_901 115 MF N21 3424 -0.299731 14.0067
3078 opls_157 115 MF C1 3425 0.024669 12.011
3079 opls_154 115 MF O1 3426 0.0 15.9994
3080 opls_156 115 MF H011 3428 0.0 1.008
3081 opls_156 115 MF H012 3429 0.0 1.008
3082 opls_910 115 MF H21 3430 0.0 1.008
3083 A 115 MF A2 3431 0.0 72.06679999999997
3084 opls_902 115 MF N12 3432 -0.407374 14.0067
3085 opls_145 115 MF C12 3433 0.682437 12.011
3086 opls_901 115 MF N22 3434 -0.299729 14.0067
3087 opls_157 115 MF C2 3435 0.024672 12.011
3088 opls_154 115 MF O2 3436 0.0 15.9994
3089 opls_155 115 MF H02 3437 0.0 1.008
3090 opls_156 115 MF H021 3438 0.0 1.008
3091 opls_156 115 MF H022 3439 0.0 1.008
3092 opls_910 115 MF H31 3440 0.0 1.008
3093 A 115 MF A3 3441 0.0 72.06679999999997
3094 opls_902 115 MF N13 3442 -0.407483 14.0067
3095 opls_145 115 MF C13 3443 0.682492 12.011
3096 opls_901 115 MF N23 3444 -0.299758 14.0067
3097 opls_157 115 MF C3 3445 0.024689 12.011
3098 opls_154 115 MF O3 3446 0.0 15.9994
3099 opls_156 115 MF H031 3448 0.0 1.008
3100 opls_156 115 MF H032 3449 0.0 1.008
3101 opls_910 115 MF H11 3450 0.0 1.008
3102 A 116 MF A1 3451 0.0 72.06679999999997
3103 opls_902 116 MF N11 3452 -0.407377 14.0067
3104 opls_145 116 MF C11 3453 0.682493 12.011
3105 opls_901 116 MF N21 3454 -0.299731 14.0067
3106 opls_157 116 MF C1 3455 0.024669 12.011
3107 opls_156 116 MF H011 3458 0.0 1.008
3108 opls_156 116 MF H012 3459 0.0 1.008
3109 opls_910 116 MF H21 3460 0.0 1.008
3110 A 116 MF A2 3461 0.0 72.06679999999997
3111 opls_902 116 MF N12 3462 -0.407374 14.0067
3112 opls_145 116 MF C12 3463 0.682437 12.011
3113 opls_901 116 MF N22 3464 -0.299729 14.0067
3114 opls_157 116 MF C2 3465 0.024672 12.011
3115 opls_154 116 MF O2 3466 0.0 15.9994
3116 opls_156 116 MF H021 3468 0.0 1.008
3117 opls_156 116 MF H022 3469 0.0 1.008
3118 opls_910 116 MF H31 3470 0.0 1.008
3119 A 116 MF A3 3471 0.0 72.06679999999997
3120 opls_902 116 MF N13 3472 -0.407483 14.0067
3121 opls_145 116 MF C13 3473 0.682492 12.011
3122 opls_901 116 MF N23 3474 -0.299758 14.0067
3123 opls_157 116 MF C3 3475 0.024689 12.011
3124 opls_154 116 MF O3 3476 0.0 15.9994
3125 opls_156 116 MF H031 3478 0.0 1.008
3126 opls_156 116 MF H032 3479 0.0 1.008
3127 opls_910 116 MF H11 3480 0.0 1.008
3128 A 117 MF A1 3481 0.0 72.06679999999997
3129 opls_902 117 MF N11 3482 -0.407377 14.0067
3130 opls_145 117 MF C11 3483 0.682493 12.011
3131 opls_901 117 MF N21 3484 -0.299731 14.0067
3132 opls_157 117 MF C1 3485 0.024669 12.011
3133 opls_154 117 MF O1 3486 0.0 15.9994
3134 opls_156 117 MF H011 3488 0.0 1.008
3135 opls_156 117 MF H012 3489 0.0 1.008
3136 opls_910 117 MF H21 3490 0.0 1.008
3137 A 117 MF A2 3491 0.0 72.06679999999997
3138 opls_902 117 MF N12 3492 -0.407374 14.0067
3139 opls_145 117 MF C12 3493 0.682437 12.011
3140 opls_901 117 MF N22 3494 -0.299729 14.0067
3141 opls_157 117 MF C2 3495 0.024672 12.011
3142 opls_156 117 MF H021 3498 0.0 1.008
3143 opls_156 117 MF H022 3499 0.0 1.008
3144 opls_910 117 MF H31 3500 0.0 1.008
3145 A 117 MF A3 3501 0.0 72.06679999999997
3146 opls_902 117 MF N13 3502 -0.407483 14.0067
3147 opls_145 117 MF C13 3503 0.682492 12.011
3148 opls_901 117 MF N23 3504 -0.299758 14.0067
3149 opls_157 117 MF C3 3505 0.024689 12.011
3150 opls_156 117 MF H031 3508 0.0 1.008
3151 opls_156 117 MF H032 3509 0.0 1.008
3152 opls_910 117 MF H11 3510 0.0 1.008
3153 A 118 MF A1 3511 0.0 72.06679999999997
3154 opls_902 118 MF N11 3512 -0.407377 14.0067
3155 opls_145 118 MF C11 3513 0.682493 12.011
3156 opls_901 118 MF N21 3514 -0.299731 14.0067
3157 opls_157 118 MF C1 3515 0.024669 12.011
3158 opls_156 118 MF H011 3518 0.0 1.008
3159 opls_156 118 MF H012 3519 0.0 1.008
3160 opls_910 118 MF H21 3520 0.0 1.008
3161 A 118 MF A2 3521 0.0 72.06679999999997
3162 opls_902 118 MF N12 3522 -0.407374 14.0067
3163 opls_145 118 MF C12 3523 0.682437 12.011
3164 opls_901 118 MF N22 3524 -0.299729 14.0067
3165 opls_157 118 MF C2 3525 0.024672 12.011
3166 opls_154 118 MF O2 3526 0.0 15.9994
3167 opls_156 118 MF H021 3528 0.0 1.008
3168 opls_156 118 MF H022 3529 0.0 1.008
3169 opls_910 118 MF H31 3530 0.0 1.008
3170 A 118 MF A3 3531 0.0 72.06679999999997
3171 opls_902 118 MF N13 3532 -0.407483 14.0067
3172 opls_145 118 MF C13 3533 0.682492 12.011
3173 opls_901 118 MF N23 3534 -0.299758 14.0067
3174 opls_157 118 MF C3 3535 0.024689 12.011
3175 opls_156 118 MF H031 3538 0.0 1.008
3176 opls_156 118 MF H032 3539 0.0 1.008
3177 opls_910 118 MF H11 3540 0.0 1.008
3178 A 119 MF A1 3541 0.0 72.06679999999997
3179 opls_902 119 MF N11 3542 -0.407377 14.0067
3180 opls_145 119 MF C11 3543 0.682493 12.011
3181 opls_901 119 MF N21 3544 -0.299731 14.0067
3182 opls_157 119 MF C1 3545 0.024669 12.011
3183 opls_154 119 MF O1 3546 0.0 15.9994
3184 opls_156 119 MF H011 3548 0.0 1.008
3185 opls_156 119 MF H012 3549 0.0 1.008
3186 opls_910 119 MF H21 3550 0.0 1.008
3187 A 119 MF A2 3551 0.0 72.06679999999997
3188 opls_902 119 MF N12 3552 -0.407374 14.0067
3189 opls_145 119 MF C12 3553 0.682437 12.011
3190 opls_901 119 MF N22 3554 -0.299729 14.0067
3191 opls_157 119 MF C2 3555 0.024672 12.011
3192 opls_154 119 MF O2 3556 0.0 15.9994
3193 opls_155 119 MF H02 3557 0.0 1.008
3194 opls_156 119 MF H021 3558 0.0 1.008
3195 opls_156 119 MF H022 3559 0.0 1.008
3196 opls_910 119 MF H31 3560 0.0 1.008
3197 A 119 MF A3 3561 0.0 72.06679999999997
3198 opls_902 119 MF N13 3562 -0.407483 14.0067
3199 opls_145 119 MF C13 3563 0.682492 12.011
3200 opls_901 119 MF N23 3564 -0.299758 14.0067
3201 opls_157 119 MF C3 3565 0.024689 12.011
3202 opls_154 119 MF O3 3566 0.0 15.9994
3203 opls_156 119 MF H031 3568 0.0 1.008
3204 opls_156 119 MF H032 3569 0.0 1.008
3205 opls_910 119 MF H11 3570 0.0 1.008
3206 A 120 MF A1 3571 0.0 72.06679999999997
3207 opls_902 120 MF N11 3572 -0.407377 14.0067
3208 opls_145 120 MF C11 3573 0.682493 12.011
3209 opls_901 120 MF N21 3574 -0.299731 14.0067
3210 opls_157 120 MF C1 3575 0.024669 12.011
3211 opls_156 120 MF H011 3578 0.0 1.008
3212 opls_156 120 MF H012 3579 0.0 1.008
3213 opls_910 120 MF H21 3580 0.0 1.008
3214 A 120 MF A2 3581 0.0 72.06679999999997
3215 opls_902 120 MF N12 3582 -0.407374 14.0067
3216 opls_145 120 MF C12 3583 0.682437 12.011
3217 opls_901 120 MF N22 3584 -0.299729 14.0067
3218 opls_157 120 MF C2 3585 0.024672 12.011
3219 opls_154 120 MF O2 3586 0.0 15.9994
3220 opls_156 120 MF H021 3588 0.0 1.008
3221 opls_156 120 MF H022 3589 0.0 1.008
3222 opls_910 120 MF H31 3590 0.0 1.008
3223 A 120 MF A3 3591 0.0 72.06679999999997
3224 opls_902 120 MF N13 3592 -0.407483 14.0067
3225 opls_145 120 MF C13 3593 0.682492 12.011
3226 opls_901 120 MF N23 3594 -0.299758 14.0067
3227 opls_157 120 MF C3 3595 0.024689 12.011
3228 opls_156 120 MF H031 3598 0.0 1.008
3229 opls_156 120 MF H032 3599 0.0 1.008
3230 opls_910 120 MF H11 3600 0.0 1.008
3231 A 121 MF A1 3601 0.0 72.06679999999997
3232 opls_902 121 MF N11 3602 -0.407377 14.0067
3233 opls_145 121 MF C11 3603 0.682493 12.011
3234 opls_901 121 MF N21 3604 -0.299731 14.0067
3235 opls_157 121 MF C1 3605 0.024669 12.011
3236 opls_154 121 MF O1 3606 0.0 15.9994
3237 opls_156 121 MF H011 3608 0.0 1.008
3238 opls_156 121 MF H012 3609 0.0 1.008
3239 opls_910 121 MF H21 3610 0.0 1.008
3240 A 121 MF A2 3611 0.0 72.06679999999997
3241 opls_902 121 MF N12 3612 -0.407374 14.0067
3242 opls_145 121 MF C12 3613 0.682437 12.011
3243 opls_901 121 MF N22 3614 -0.299729 14.0067
3244 opls_157 121 MF C2 3615 0.024672 12.011
3245 opls_154 121 MF O2 3616 0.0 15.9994
3246 opls_155 121 MF H02 3617 0.0 1.008
3247 opls_156 121 MF H021 3618 0.0 1.008
3248 opls_156 121 MF H022 3619 0.0 1.008
3249 opls_910 121 MF H31 3620 0.0 1.008
3250 A 121 MF A3 3621 0.0 72.06679999999997
3251 opls_902 121 MF N13 3622 -0.407483 14.0067
3252 opls_145 121 MF C13 3623 0.682492 12.011
3253 opls_901 121 MF N23 3624 -0.299758 14.0067
3254 opls_157 121 MF C3 3625 0.024689 12.011
3255 opls_154 121 MF O3 3626 0.0 15.9994
3256 opls_156 121 MF H031 3628 0.0 1.008
3257 opls_156 121 MF H032 3629 0.0 1.008
3258 opls_910 121 MF H11 3630 0.0 1.008
3259 A 122 MF A1 3631 0.0 72.06679999999997
3260 opls_902 122 MF N11 3632 -0.407377 14.0067
3261 opls_145 122 MF C11 3633 0.682493 12.011
3262 opls_901 122 MF N21 3634 -0.299731 14.0067
3263 opls_157 122 MF C1 3635 0.024669 12.011
3264 opls_154 122 MF O1 3636 0.0 15.9994
3265 opls_156 122 MF H011 3638 0.0 1.008
3266 opls_156 122 MF H012 3639 0.0 1.008
3267 opls_910 122 MF H21 3640 0.0 1.008
3268 A 122 MF A2 3641 0.0 72.06679999999997
3269 opls_902 122 MF N12 3642 -0.407374 14.0067
3270 opls_145 122 MF C12 3643 0.682437 12.011
3271 opls_901 122 MF N22 3644 -0.299729 14.0067
3272 opls_157 122 MF C2 3645 0.024672 12.011
3273 opls_154 122 MF O2 3646 0.0 15.9994
3274 opls_156 122 MF H021 3648 0.0 1.008
3275 opls_156 122 MF H022 3649 0.0 1.008
3276 opls_910 122 MF H31 3650 0.0 1.008
3277 A 122 MF A3 3651 0.0 72.06679999999997
3278 opls_902 122 MF N13 3652 -0.407483 14.0067
3279 opls_145 122 MF C13 3653 0.682492 12.011
3280 opls_901 122 MF N23 3654 -0.299758 14.0067
3281 opls_157 122 MF C3 3655 0.024689 12.011
3282 opls_154 122 MF O3 3656 0.0 15.9994
3283 opls_156 122 MF H031 3658 0.0 1.008
3284 opls_156 122 MF H032 3659 0.0 1.008
3285 opls_910 122 MF H11 3660 0.0 1.008
3286 A 123 MF A1 3661 0.0 72.06679999999997
3287 opls_902 123 MF N11 3662 -0.407377 14.0067
3288 opls_145 123 MF C11 3663 0.682493 12.011
3289 opls_901 123 MF N21 3664 -0.299731 14.0067
3290 opls_157 123 MF C1 3665 0.024669 12.011
3291 opls_154 123 MF O1 3666 0.0 15.9994
3292 opls_156 123 MF H011 3668 0.0 1.008
3293 opls_156 123 MF H012 3669 0.0 1.008
3294 opls_910 123 MF H21 3670 0.0 1.008
3295 A 123 MF A2 3671 0.0 72.06679999999997
3296 opls_902 123 MF N12 3672 -0.407374 14.0067
3297 opls_145 123 MF C12 3673 0.682437 12.011
3298 opls_901 123 MF N22 3674 -0.299729 14.0067
3299 opls_157 123 MF C2 3675 0.024672 12.011
3300 opls_154 123 MF O2 3676 0.0 15.9994
3301 opls_156 123 MF H021 3678 0.0 1.008
3302 opls_156 123 MF H022 3679 0.0 1.008
3303 opls_910 123 MF H31 3680 0.0 1.008
3304 A 123 MF A3 3681 0.0 72.06679999999997
3305 opls_902 123 MF N13 3682 -0.407483 14.0067
3306 opls_145 123 MF C13 3683 0.682492 12.011
3307 opls_901 123 MF N23 3684 -0.299758 14.0067
3308 opls_157 123 MF C3 3685 0.024689 12.011
3309 opls_154 123 MF O3 3686 0.0 15.9994
3310 opls_156 123 MF H031 3688 0.0 1.008
3311 opls_156 123 MF H032 3689 0.0 1.008
3312 opls_910 123 MF H11 3690 0.0 1.008
3313 A 124 MF A1 3691 0.0 72.06679999999997
3314 opls_902 124 MF N11 3692 -0.407377 14.0067
3315 opls_145 124 MF C11 3693 0.682493 12.011
3316 opls_901 124 MF N21 3694 -0.299731 14.0067
3317 opls_157 124 MF C1 3695 0.024669 12.011
3318 opls_156 124 MF H011 3698 0.0 1.008
3319 opls_156 124 MF H012 3699 0.0 1.008
3320 opls_910 124 MF H21 3700 0.0 1.008
3321 A 124 MF A2 3701 0.0 72.06679999999997
3322 opls_902 124 MF N12 3702 -0.407374 14.0067
3323 opls_145 124 MF C12 3703 0.682437 12.011
3324 opls_901 124 MF N22 3704 -0.299729 14.0067
3325 opls_157 124 MF C2 3705 0.024672 12.011
3326 opls_154 124 MF O2 3706 0.0 15.9994
3327 opls_156 124 MF H021 3708 0.0 1.008
3328 opls_156 124 MF H022 3709 0.0 1.008
3329 opls_910 124 MF H31 3710 0.0 1.008
3330 A 124 MF A3 3711 0.0 72.06679999999997
3331 opls_902 124 MF N13 3712 -0.407483 14.0067
3332 opls_145 124 MF C13 3713 0.682492 12.011
3333 opls_901 124 MF N23 3714 -0.299758 14.0067
3334 opls_157 124 MF C3 3715 0.024689 12.011
3335 opls_154 124 MF O3 3716 0.0 15.9994
3336 opls_156 124 MF H031 3718 0.0 1.008
3337 opls_156 124 MF H032 3719 0.0 1.008
3338 opls_910 124 MF H11 3720 0.0 1.008
3339 A 125 MF A1 3721 0.0 72.06679999999997
3340 opls_902 125 MF N11 3722 -0.407377 14.0067
3341 opls_145 125 MF C11 3723 0.682493 12.011
3342 opls_901 125 MF N21 3724 -0.299731 14.0067
3343 opls_157 125 MF C1 3725 0.024669 12.011
3344 opls_154 125 MF O1 3726 0.0 15.9994
3345 opls_155 125 MF H01 3727 0.0 1.008
3346 opls_156 125 MF H011 3728 0.0 1.008
3347 opls_156 125 MF H012 3729 0.0 1.008
3348 opls_910 125 MF H21 3730 0.0 1.008
3349 A 125 MF A2 3731 0.0 72.06679999999997
3350 opls_902 125 MF N12 3732 -0.407374 14.0067
3351 opls_145 125 MF C12 3733 0.682437 12.011
3352 opls_901 125 MF N22 3734 -0.299729 14.0067
3353 opls_157 125 MF C2 3735 0.024672 12.011
3354 opls_154 125 MF O2 3736 0.0 15.9994
3355 opls_155 125 MF H02 3737 0.0 1.008
3356 opls_156 125 MF H021 3738 0.0 1.008
3357 opls_156 125 MF H022 3739 0.0 1.008
3358 opls_910 125 MF H31 3740 0.0 1.008
3359 A 125 MF A3 3741 0.0 72.06679999999997
3360 opls_902 125 MF N13 3742 -0.407483 14.0067
3361 opls_145 125 MF C13 3743 0.682492 12.011
3362 opls_901 125 MF N23 3744 -0.299758 14.0067
3363 opls_157 125 MF C3 3745 0.024689 12.011
3364 opls_154 125 MF O3 3746 0.0 15.9994
3365 opls_156 125 MF H031 3748 0.0 1.008
3366 opls_156 125 MF H032 3749 0.0 1.008
3367 opls_910 125 MF H11 3750 0.0 1.008
3368 A 126 MF A1 3751 0.0 72.06679999999997
3369 opls_902 126 MF N11 3752 -0.407377 14.0067
3370 opls_145 126 MF C11 3753 0.682493 12.011
3371 opls_901 126 MF N21 3754 -0.299731 14.0067
3372 opls_157 126 MF C1 3755 0.024669 12.011
3373 opls_154 126 MF O1 3756 0.0 15.9994
3374 opls_156 126 MF H011 3758 0.0 1.008
3375 opls_156 126 MF H012 3759 0.0 1.008
3376 opls_910 126 MF H21 3760 0.0 1.008
3377 A 126 MF A2 3761 0.0 72.06679999999997
3378 opls_902 126 MF N12 3762 -0.407374 14.0067
3379 opls_145 126 MF C12 3763 0.682437 12.011
3380 opls_901 126 MF N22 3764 -0.299729 14.0067
3381 opls_157 126 MF C2 3765 0.024672 12.011
3382 opls_154 126 MF O2 3766 0.0 15.9994
3383 opls_155 126 MF H02 3767 0.0 1.008
3384 opls_156 126 MF H021 3768 0.0 1.008
3385 opls_156 126 MF H022 3769 0.0 1.008
3386 opls_910 126 MF H31 3770 0.0 1.008
3387 A 126 MF A3 3771 0.0 72.06679999999997
3388 opls_902 126 MF N13 3772 -0.407483 14.0067
3389 opls_145 126 MF C13 3773 0.682492 12.011
3390 opls_901 126 MF N23 3774 -0.299758 14.0067
3391 opls_157 126 MF C3 3775 0.024689 12.011
3392 opls_154 126 MF O3 3776 0.0 15.9994
3393 opls_156 126 MF H031 3778 0.0 1.008
3394 opls_156 126 MF H032 3779 0.0 1.008
3395 opls_910 126 MF H11 3780 0.0 1.008
3396 A 127 MF A1 3781 0.0 72.06679999999997
3397 opls_902 127 MF N11 3782 -0.407377 14.0067
3398 opls_145 127 MF C11 3783 0.682493 12.011
3399 opls_901 127 MF N21 3784 -0.299731 14.0067
3400 opls_157 127 MF C1 3785 0.024669 12.011
3401 opls_154 127 MF O1 3786 0.0 15.9994
3402 opls_156 127 MF H011 3788 0.0 1.008
3403 opls_156 127 MF H012 3789 0.0 1.008
3404 opls_910 127 MF H21 3790 0.0 1.008
3405 A 127 MF A2 3791 0.0 72.06679999999997
3406 opls_902 127 MF N12 3792 -0.407374 14.0067
3407 opls_145 127 MF C12 3793 0.682437 12.011
3408 opls_901 127 MF N22 3794 -0.299729 14.0067
3409 opls_157 127 MF C2 3795 0.024672 12.011
3410 opls_154 127 MF O2 3796 0.0 15.9994
3411 opls_156 127 MF H021 3798 0.0 1.008
3412 opls_156 127 MF H022 3799 0.0 1.008
3413 opls_910 127 MF H31 3800 0.0 1.008
3414 A 127 MF A3 3801 0.0 72.06679999999997
3415 opls_902 127 MF N13 3802 -0.407483 14.0067
3416 opls_145 127 MF C13 3803 0.682492 12.011
3417 opls_901 127 MF N23 3804 -0.299758 14.0067
3418 opls_157 127 MF C3 3805 0.024689 12.011
3419 opls_154 127 MF O3 3806 0.0 15.9994
3420 opls_156 127 MF H031 3808 0.0 1.008
3421 opls_156 127 MF H032 3809 0.0 1.008
3422 opls_910 127 MF H11 3810 0.0 1.008
3423 A 128 MF A1 3811 0.0 72.06679999999997
3424 opls_902 128 MF N11 3812 -0.407377 14.0067
3425 opls_145 128 MF C11 3813 0.682493 12.011
3426 opls_901 128 MF N21 3814 -0.299731 14.0067
3427 opls_157 128 MF C1 3815 0.024669 12.011
3428 opls_154 128 MF O1 3816 0.0 15.9994
3429 opls_156 128 MF H011 3818 0.0 1.008
3430 opls_156 128 MF H012 3819 0.0 1.008
3431 opls_910 128 MF H21 3820 0.0 1.008
3432 A 128 MF A2 3821 0.0 72.06679999999997
3433 opls_902 128 MF N12 3822 -0.407374 14.0067
3434 opls_145 128 MF C12 3823 0.682437 12.011
3435 opls_901 128 MF N22 3824 -0.299729 14.0067
3436 opls_157 128 MF C2 3825 0.024672 12.011
3437 opls_154 128 MF O2 3826 0.0 15.9994
3438 opls_156 128 MF H021 3828 0.0 1.008
3439 opls_156 128 MF H022 3829 0.0 1.008
3440 opls_910 128 MF H31 3830 0.0 1.008
3441 A 128 MF A3 3831 0.0 72.06679999999997
3442 opls_902 128 MF N13 3832 -0.407483 14.0067
3443 opls_145 128 MF C13 3833 0.682492 12.011
3444 opls_901 128 MF N23 3834 -0.299758 14.0067
3445 opls_157 128 MF C3 3835 0.024689 12.011
3446 opls_154 128 MF O3 3836 0.0 15.9994
3447 opls_156 128 MF H031 3838 0.0 1.008
3448 opls_156 128 MF H032 3839 0.0 1.008
3449 opls_910 128 MF H11 3840 0.0 1.008
3450 A 129 MF A1 3841 0.0 72.06679999999997
3451 opls_902 129 MF N11 3842 -0.407377 14.0067
3452 opls_145 129 MF C11 3843 0.682493 12.011
3453 opls_901 129 MF N21 3844 -0.299731 14.0067
3454 opls_157 129 MF C1 3845 0.024669 12.011
3455 opls_154 129 MF O1 3846 0.0 15.9994
3456 opls_156 129 MF H011 3848 0.0 1.008
3457 opls_156 129 MF H012 3849 0.0 1.008
3458 opls_910 129 MF H21 3850 0.0 1.008
3459 A 129 MF A2 3851 0.0 72.06679999999997
3460 opls_902 129 MF N12 3852 -0.407374 14.0067
3461 opls_145 129 MF C12 3853 0.682437 12.011
3462 opls_901 129 MF N22 3854 -0.299729 14.0067
3463 opls_157 129 MF C2 3855 0.024672 12.011
3464 opls_154 129 MF O2 3856 0.0 15.9994
3465 opls_155 129 MF H02 3857 0.0 1.008
3466 opls_156 129 MF H021 3858 0.0 1.008
3467 opls_156 129 MF H022 3859 0.0 1.008
3468 opls_910 129 MF H31 3860 0.0 1.008
3469 A 129 MF A3 3861 0.0 72.06679999999997
3470 opls_902 129 MF N13 3862 -0.407483 14.0067
3471 opls_145 129 MF C13 3863 0.682492 12.011
3472 opls_901 129 MF N23 3864 -0.299758 14.0067
3473 opls_157 129 MF C3 3865 0.024689 12.011
3474 opls_154 129 MF O3 3866 0.0 15.9994
3475 opls_156 129 MF H031 3868 0.0 1.008
3476 opls_156 129 MF H032 3869 0.0 1.008
3477 opls_910 129 MF H11 3870 0.0 1.008
3478 A 130 MF A1 3871 0.0 72.06679999999997
3479 opls_902 130 MF N11 3872 -0.407377 14.0067
3480 opls_145 130 MF C11 3873 0.682493 12.011
3481 opls_901 130 MF N21 3874 -0.299731 14.0067
3482 opls_157 130 MF C1 3875 0.024669 12.011
3483 opls_154 130 MF O1 3876 0.0 15.9994
3484 opls_156 130 MF H011 3878 0.0 1.008
3485 opls_156 130 MF H012 3879 0.0 1.008
3486 opls_910 130 MF H21 3880 0.0 1.008
3487 A 130 MF A2 3881 0.0 72.06679999999997
3488 opls_902 130 MF N12 3882 -0.407374 14.0067
3489 opls_145 130 MF C12 3883 0.682437 12.011
3490 opls_901 130 MF N22 3884 -0.299729 14.0067
3491 opls_157 130 MF C2 3885 0.024672 12.011
3492 opls_154 130 MF O2 3886 0.0 15.9994
3493 opls_156 130 MF H021 3888 0.0 1.008
3494 opls_156 130 MF H022 3889 0.0 1.008
3495 opls_910 130 MF H31 3890 0.0 1.008
3496 A 130 MF A3 3891 0.0 72.06679999999997
3497 opls_902 130 MF N13 3892 -0.407483 14.0067
3498 opls_145 130 MF C13 3893 0.682492 12.011
3499 opls_901 130 MF N23 3894 -0.299758 14.0067
3500 opls_157 130 MF C3 3895 0.024689 12.011
3501 opls_154 130 MF O3 3896 0.0 15.9994
3502 opls_156 130 MF H031 3898 0.0 1.008
3503 opls_156 130 MF H032 3899 0.0 1.008
3504 opls_910 130 MF H11 3900 0.0 1.008
3505 A 131 MF A1 3901 0.0 72.06679999999997
3506 opls_902 131 MF N11 3902 -0.407377 14.0067
3507 opls_145 131 MF C11 3903 0.682493 12.011
3508 opls_901 131 MF N21 3904 -0.299731 14.0067
3509 opls_157 131 MF C1 3905 0.024669 12.011
3510 opls_156 131 MF H011 3908 0.0 1.008
3511 opls_156 131 MF H012 3909 0.0 1.008
3512 opls_910 131 MF H21 3910 0.0 1.008
3513 A 131 MF A2 3911 0.0 72.06679999999997
3514 opls_902 131 MF N12 3912 -0.407374 14.0067
3515 opls_145 131 MF C12 3913 0.682437 12.011
3516 opls_901 131 MF N22 3914 -0.299729 14.0067
3517 opls_157 131 MF C2 3915 0.024672 12.011
3518 opls_154 131 MF O2 3916 0.0 15.9994
3519 opls_156 131 MF H021 3918 0.0 1.008
3520 opls_156 131 MF H022 3919 0.0 1.008
3521 opls_910 131 MF H31 3920 0.0 1.008
3522 A 131 MF A3 3921 0.0 72.06679999999997
3523 opls_902 131 MF N13 3922 -0.407483 14.0067
3524 opls_145 131 MF C13 3923 0.682492 12.011
3525 opls_901 131 MF N23 3924 -0.299758 14.0067
3526 opls_157 131 MF C3 3925 0.024689 12.011
3527 opls_154 131 MF O3 3926 0.0 15.9994
3528 opls_156 131 MF H031 3928 0.0 1.008
3529 opls_156 131 MF H032 3929 0.0 1.008
3530 opls_910 131 MF H11 3930 0.0 1.008
3531 A 132 MF A1 3931 0.0 72.06679999999997
3532 opls_902 132 MF N11 3932 -0.407377 14.0067
3533 opls_145 132 MF C11 3933 0.682493 12.011
3534 opls_901 132 MF N21 3934 -0.299731 14.0067
3535 opls_157 132 MF C1 3935 0.024669 12.011
3536 opls_154 132 MF O1 3936 0.0 15.9994
3537 opls_156 132 MF H011 3938 0.0 1.008
3538 opls_156 132 MF H012 3939 0.0 1.008
3539 opls_910 132 MF H21 3940 0.0 1.008
3540 A 132 MF A2 3941 0.0 72.06679999999997
3541 opls_902 132 MF N12 3942 -0.407374 14.0067
3542 opls_145 132 MF C12 3943 0.682437 12.011
3543 opls_901 132 MF N22 3944 -0.299729 14.0067
3544 opls_157 132 MF C2 3945 0.024672 12.011
3545 opls_154 132 MF O2 3946 0.0 15.9994
3546 opls_156 132 MF H021 3948 0.0 1.008
3547 opls_156 132 MF H022 3949 0.0 1.008
3548 opls_910 132 MF H31 3950 0.0 1.008
3549 A 132 MF A3 3951 0.0 72.06679999999997
3550 opls_902 132 MF N13 3952 -0.407483 14.0067
3551 opls_145 132 MF C13 3953 0.682492 12.011
3552 opls_901 132 MF N23 3954 -0.299758 14.0067
3553 opls_157 132 MF C3 3955 0.024689 12.011
3554 opls_154 132 MF O3 3956 0.0 15.9994
3555 opls_156 132 MF H031 3958 0.0 1.008
3556 opls_156 132 MF H032 3959 0.0 1.008
3557 opls_910 132 MF H11 3960 0.0 1.008
3558 A 133 MF A1 3961 0.0 72.06679999999997
3559 opls_902 133 MF N11 3962 -0.407377 14.0067
3560 opls_145 133 MF C11 3963 0.682493 12.011
3561 opls_901 133 MF N21 3964 -0.299731 14.0067
3562 opls_157 133 MF C1 3965 0.024669 12.011
3563 opls_154 133 MF O1 3966 0.0 15.9994
3564 opls_156 133 MF H011 3968 0.0 1.008
3565 opls_156 133 MF H012 3969 0.0 1.008
3566 opls_910 133 MF H21 3970 0.0 1.008
3567 A 133 MF A2 3971 0.0 72.06679999999997
3568 opls_902 133 MF N12 3972 -0.407374 14.0067
3569 opls_145 133 MF C12 3973 0.682437 12.011
3570 opls_901 133 MF N22 3974 -0.299729 14.0067
3571 opls_157 133 MF C2 3975 0.024672 12.011
3572 opls_156 133 MF H021 3978 0.0 1.008
3573 opls_156 133 MF H022 3979 0.0 1.008
3574 opls_910 133 MF H31 3980 0.0 1.008
3575 A 133 MF A3 3981 0.0 72.06679999999997
3576 opls_902 133 MF N13 3982 -0.407483 14.0067
3577 opls_145 133 MF C13 3983 0.682492 12.011
3578 opls_901 133 MF N23 3984 -0.299758 14.0067
3579 opls_157 133 MF C3 3985 0.024689 12.011
3580 opls_156 133 MF H031 3988 0.0 1.008
3581 opls_156 133 MF H032 3989 0.0 1.008
3582 opls_910 133 MF H11 3990 0.0 1.008
3583 A 134 MF A1 3991 0.0 72.06679999999997
3584 opls_902 134 MF N11 3992 -0.407377 14.0067
3585 opls_145 134 MF C11 3993 0.682493 12.011
3586 opls_901 134 MF N21 3994 -0.299731 14.0067
3587 opls_157 134 MF C1 3995 0.024669 12.011
3588 opls_154 134 MF O1 3996 0.0 15.9994
3589 opls_156 134 MF H011 3998 0.0 1.008
3590 opls_156 134 MF H012 3999 0.0 1.008
3591 opls_910 134 MF H21 4000 0.0 1.008
3592 A 134 MF A2 4001 0.0 72.06679999999997
3593 opls_902 134 MF N12 4002 -0.407374 14.0067
3594 opls_145 134 MF C12 4003 0.682437 12.011
3595 opls_901 134 MF N22 4004 -0.299729 14.0067
3596 opls_157 134 MF C2 4005 0.024672 12.011
3597 opls_156 134 MF H021 4008 0.0 1.008
3598 opls_156 134 MF H022 4009 0.0 1.008
3599 opls_910 134 MF H31 4010 0.0 1.008
3600 A 134 MF A3 4011 0.0 72.06679999999997
3601 opls_902 134 MF N13 4012 -0.407483 14.0067
3602 opls_145 134 MF C13 4013 0.682492 12.011
3603 opls_901 134 MF N23 4014 -0.299758 14.0067
3604 opls_157 134 MF C3 4015 0.024689 12.011
3605 opls_156 134 MF H031 4018 0.0 1.008
3606 opls_156 134 MF H032 4019 0.0 1.008
3607 opls_910 134 MF H11 4020 0.0 1.008
3608 A 135 MF A1 4021 0.0 72.06679999999997
3609 opls_902 135 MF N11 4022 -0.407377 14.0067
3610 opls_145 135 MF C11 4023 0.682493 12.011
3611 opls_901 135 MF N21 4024 -0.299731 14.0067
3612 opls_157 135 MF C1 4025 0.024669 12.011
3613 opls_154 135 MF O1 4026 0.0 15.9994
3614 opls_156 135 MF H011 4028 0.0 1.008
3615 opls_156 135 MF H012 4029 0.0 1.008
3616 opls_910 135 MF H21 4030 0.0 1.008
3617 A 135 MF A2 4031 0.0 72.06679999999997
3618 opls_902 135 MF N12 4032 -0.407374 14.0067
3619 opls_145 135 MF C12 4033 0.682437 12.011
3620 opls_901 135 MF N22 4034 -0.299729 14.0067
3621 opls_157 135 MF C2 4035 0.024672 12.011
3622 opls_156 135 MF H021 4038 0.0 1.008
3623 opls_156 135 MF H022 4039 0.0 1.008
3624 opls_910 135 MF H31 4040 0.0 1.008
3625 A 135 MF A3 4041 0.0 72.06679999999997
3626 opls_902 135 MF N13 4042 -0.407483 14.0067
3627 opls_145 135 MF C13 4043 0.682492 12.011
3628 opls_901 135 MF N23 4044 -0.299758 14.0067
3629 opls_157 135 MF C3 4045 0.024689 12.011
3630 opls_154 135 MF O3 4046 0.0 15.9994
3631 opls_156 135 MF H031 4048 0.0 1.008
3632 opls_156 135 MF H032 4049 0.0 1.008
3633 opls_910 135 MF H11 4050 0.0 1.008
3634 A 136 MF A1 4051 0.0 72.06679999999997
3635 opls_902 136 MF N11 4052 -0.407377 14.0067
3636 opls_145 136 MF C11 4053 0.682493 12.011
3637 opls_901 136 MF N21 4054 -0.299731 14.0067
3638 opls_157 136 MF C1 4055 0.024669 12.011
3639 opls_156 136 MF H011 4058 0.0 1.008
3640 opls_156 136 MF H012 4059 0.0 1.008
3641 opls_910 136 MF H21 4060 0.0 1.008
3642 A 136 MF A2 4061 0.0 72.06679999999997
3643 opls_902 136 MF N12 4062 -0.407374 14.0067
3644 opls_145 136 MF C12 4063 0.682437 12.011
3645 opls_901 136 MF N22 4064 -0.299729 14.0067
3646 opls_157 136 MF C2 4065 0.024672 12.011
3647 opls_154 136 MF O2 4066 0.0 15.9994
3648 opls_156 136 MF H021 4068 0.0 1.008
3649 opls_156 136 MF H022 4069 0.0 1.008
3650 opls_910 136 MF H31 4070 0.0 1.008
3651 A 136 MF A3 4071 0.0 72.06679999999997
3652 opls_902 136 MF N13 4072 -0.407483 14.0067
3653 opls_145 136 MF C13 4073 0.682492 12.011
3654 opls_901 136 MF N23 4074 -0.299758 14.0067
3655 opls_157 136 MF C3 4075 0.024689 12.011
3656 opls_156 136 MF H031 4078 0.0 1.008
3657 opls_156 136 MF H032 4079 0.0 1.008
3658 opls_910 136 MF H11 4080 0.0 1.008
3659 A 137 MF A1 4081 0.0 72.06679999999997
3660 opls_902 137 MF N11 4082 -0.407377 14.0067
3661 opls_145 137 MF C11 4083 0.682493 12.011
3662 opls_901 137 MF N21 4084 -0.299731 14.0067
3663 opls_157 137 MF C1 4085 0.024669 12.011
3664 opls_154 137 MF O1 4086 0.0 15.9994
3665 opls_155 137 MF H01 4087 0.0 1.008
3666 opls_156 137 MF H011 4088 0.0 1.008
3667 opls_156 137 MF H012 4089 0.0 1.008
3668 opls_910 137 MF H21 4090 0.0 1.008
3669 A 137 MF A2 4091 0.0 72.06679999999997
3670 opls_902 137 MF N12 4092 -0.407374 14.0067
3671 opls_145 137 MF C12 4093 0.682437 12.011
3672 opls_901 137 MF N22 4094 -0.299729 14.0067
3673 opls_157 137 MF C2 4095 0.024672 12.011
3674 opls_154 137 MF O2 4096 0.0 15.9994
3675 opls_156 137 MF H021 4098 0.0 1.008
3676 opls_156 137 MF H022 4099 0.0 1.008
3677 opls_910 137 MF H31 4100 0.0 1.008
3678 A 137 MF A3 4101 0.0 72.06679999999997
3679 opls_902 137 MF N13 4102 -0.407483 14.0067
3680 opls_145 137 MF C13 4103 0.682492 12.011
3681 opls_901 137 MF N23 4104 -0.299758 14.0067
3682 opls_157 137 MF C3 4105 0.024689 12.011
3683 opls_154 137 MF O3 4106 0.0 15.9994
3684 opls_156 137 MF H031 4108 0.0 1.008
3685 opls_156 137 MF H032 4109 0.0 1.008
3686 opls_910 137 MF H11 4110 0.0 1.008
3687 A 138 MF A1 4111 0.0 72.06679999999997
3688 opls_902 138 MF N11 4112 -0.407377 14.0067
3689 opls_145 138 MF C11 4113 0.682493 12.011
3690 opls_901 138 MF N21 4114 -0.299731 14.0067
3691 opls_157 138 MF C1 4115 0.024669 12.011
3692 opls_154 138 MF O1 4116 0.0 15.9994
3693 opls_156 138 MF H011 4118 0.0 1.008
3694 opls_156 138 MF H012 4119 0.0 1.008
3695 opls_910 138 MF H21 4120 0.0 1.008
3696 A 138 MF A2 4121 0.0 72.06679999999997
3697 opls_902 138 MF N12 4122 -0.407374 14.0067
3698 opls_145 138 MF C12 4123 0.682437 12.011
3699 opls_901 138 MF N22 4124 -0.299729 14.0067
3700 opls_157 138 MF C2 4125 0.024672 12.011
3701 opls_154 138 MF O2 4126 0.0 15.9994
3702 opls_156 138 MF H021 4128 0.0 1.008
3703 opls_156 138 MF H022 4129 0.0 1.008
3704 opls_910 138 MF H31 4130 0.0 1.008
3705 A 138 MF A3 4131 0.0 72.06679999999997
3706 opls_902 138 MF N13 4132 -0.407483 14.0067
3707 opls_145 138 MF C13 4133 0.682492 12.011
3708 opls_901 138 MF N23 4134 -0.299758 14.0067
3709 opls_157 138 MF C3 4135 0.024689 12.011
3710 opls_156 138 MF H031 4138 0.0 1.008
3711 opls_156 138 MF H032 4139 0.0 1.008
3712 opls_910 138 MF H11 4140 0.0 1.008
3713 A 139 MF A1 4141 0.0 72.06679999999997
3714 opls_902 139 MF N11 4142 -0.407377 14.0067
3715 opls_145 139 MF C11 4143 0.682493 12.011
3716 opls_901 139 MF N21 4144 -0.299731 14.0067
3717 opls_157 139 MF C1 4145 0.024669 12.011
3718 opls_154 139 MF O1 4146 0.0 15.9994
3719 opls_156 139 MF H011 4148 0.0 1.008
3720 opls_156 139 MF H012 4149 0.0 1.008
3721 opls_910 139 MF H21 4150 0.0 1.008
3722 A 139 MF A2 4151 0.0 72.06679999999997
3723 opls_902 139 MF N12 4152 -0.407374 14.0067
3724 opls_145 139 MF C12 4153 0.682437 12.011
3725 opls_901 139 MF N22 4154 -0.299729 14.0067
3726 opls_157 139 MF C2 4155 0.024672 12.011
3727 opls_154 139 MF O2 4156 0.0 15.9994
3728 opls_156 139 MF H021 4158 0.0 1.008
3729 opls_156 139 MF H022 4159 0.0 1.008
3730 opls_910 139 MF H31 4160 0.0 1.008
3731 A 139 MF A3 4161 0.0 72.06679999999997
3732 opls_902 139 MF N13 4162 -0.407483 14.0067
3733 opls_145 139 MF C13 4163 0.682492 12.011
3734 opls_901 139 MF N23 4164 -0.299758 14.0067
3735 opls_157 139 MF C3 4165 0.024689 12.011
3736 opls_154 139 MF O3 4166 0.0 15.9994
3737 opls_156 139 MF H031 4168 0.0 1.008
3738 opls_156 139 MF H032 4169 0.0 1.008
3739 opls_910 139 MF H11 4170 0.0 1.008
3740 A 140 MF A1 4171 0.0 72.06679999999997
3741 opls_902 140 MF N11 4172 -0.407377 14.0067
3742 opls_145 140 MF C11 4173 0.682493 12.011
3743 opls_901 140 MF N21 4174 -0.299731 14.0067
3744 opls_157 140 MF C1 4175 0.024669 12.011
3745 opls_154 140 MF O1 4176 0.0 15.9994
3746 opls_156 140 MF H011 4178 0.0 1.008
3747 opls_156 140 MF H012 4179 0.0 1.008
3748 opls_910 140 MF H21 4180 0.0 1.008
3749 A 140 MF A2 4181 0.0 72.06679999999997
3750 opls_902 140 MF N12 4182 -0.407374 14.0067
3751 opls_145 140 MF C12 4183 0.682437 12.011
3752 opls_901 140 MF N22 4184 -0.299729 14.0067
3753 opls_157 140 MF C2 4185 0.024672 12.011
3754 opls_156 140 MF H021 4188 0.0 1.008
3755 opls_156 140 MF H022 4189 0.0 1.008
3756 opls_910 140 MF H31 4190 0.0 1.008
3757 A 140 MF A3 4191 0.0 72.06679999999997
3758 opls_902 140 MF N13 4192 -0.407483 14.0067
3759 opls_145 140 MF C13 4193 0.682492 12.011
3760 opls_901 140 MF N23 4194 -0.299758 14.0067
3761 opls_157 140 MF C3 4195 0.024689 12.011
3762 opls_154 140 MF O3 4196 0.0 15.9994
3763 opls_156 140 MF H031 4198 0.0 1.008
3764 opls_156 140 MF H032 4199 0.0 1.008
3765 opls_910 140 MF H11 4200 0.0 1.008
3766 A 141 MF A1 4201 0.0 72.06679999999997
3767 opls_902 141 MF N11 4202 -0.407377 14.0067
3768 opls_145 141 MF C11 4203 0.682493 12.011
3769 opls_901 141 MF N21 4204 -0.299731 14.0067
3770 opls_157 141 MF C1 4205 0.024669 12.011
3771 opls_154 141 MF O1 4206 0.0 15.9994
3772 opls_155 141 MF H01 4207 0.0 1.008
3773 opls_156 141 MF H011 4208 0.0 1.008
3774 opls_156 141 MF H012 4209 0.0 1.008
3775 opls_910 141 MF H21 4210 0.0 1.008
3776 A 141 MF A2 4211 0.0 72.06679999999997
3777 opls_902 141 MF N12 4212 -0.407374 14.0067
3778 opls_145 141 MF C12 4213 0.682437 12.011
3779 opls_901 141 MF N22 4214 -0.299729 14.0067
3780 opls_157 141 MF C2 4215 0.024672 12.011
3781 opls_154 141 MF O2 4216 0.0 15.9994
3782 opls_156 141 MF H021 4218 0.0 1.008
3783 opls_156 141 MF H022 4219 0.0 1.008
3784 opls_910 141 MF H31 4220 0.0 1.008
3785 A 141 MF A3 4221 0.0 72.06679999999997
3786 opls_902 141 MF N13 4222 -0.407483 14.0067
3787 opls_145 141 MF C13 4223 0.682492 12.011
3788 opls_901 141 MF N23 4224 -0.299758 14.0067
3789 opls_157 141 MF C3 4225 0.024689 12.011
3790 opls_154 141 MF O3 4226 0.0 15.9994
3791 opls_156 141 MF H031 4228 0.0 1.008
3792 opls_156 141 MF H032 4229 0.0 1.008
3793 opls_910 141 MF H11 4230 0.0 1.008
3794 A 142 MF A1 4231 0.0 72.06679999999997
3795 opls_902 142 MF N11 4232 -0.407377 14.0067
3796 opls_145 142 MF C11 4233 0.682493 12.011
3797 opls_901 142 MF N21 4234 -0.299731 14.0067
3798 opls_157 142 MF C1 4235 0.024669 12.011
3799 opls_156 142 MF H011 4238 0.0 1.008
3800 opls_156 142 MF H012 4239 0.0 1.008
3801 opls_910 142 MF H21 4240 0.0 1.008
3802 A 142 MF A2 4241 0.0 72.06679999999997
3803 opls_902 142 MF N12 4242 -0.407374 14.0067
3804 opls_145 142 MF C12 4243 0.682437 12.011
3805 opls_901 142 MF N22 4244 -0.299729 14.0067
3806 opls_157 142 MF C2 4245 0.024672 12.011
3807 opls_154 142 MF O2 4246 0.0 15.9994
3808 opls_156 142 MF H021 4248 0.0 1.008
3809 opls_156 142 MF H022 4249 0.0 1.008
3810 opls_910 142 MF H31 4250 0.0 1.008
3811 A 142 MF A3 4251 0.0 72.06679999999997
3812 opls_902 142 MF N13 4252 -0.407483 14.0067
3813 opls_145 142 MF C13 4253 0.682492 12.011
3814 opls_901 142 MF N23 4254 -0.299758 14.0067
3815 opls_157 142 MF C3 4255 0.024689 12.011
3816 opls_156 142 MF H031 4258 0.0 1.008
3817 opls_156 142 MF H032 4259 0.0 1.008
3818 opls_910 142 MF H11 4260 0.0 1.008
3819 A 143 MF A1 4261 0.0 72.06679999999997
3820 opls_902 143 MF N11 4262 -0.407377 14.0067
3821 opls_145 143 MF C11 4263 0.682493 12.011
3822 opls_901 143 MF N21 4264 -0.299731 14.0067
3823 opls_157 143 MF C1 4265 0.024669 12.011
3824 opls_154 143 MF O1 4266 0.0 15.9994
3825 opls_156 143 MF H011 4268 0.0 1.008
3826 opls_156 143 MF H012 4269 0.0 1.008
3827 opls_910 143 MF H21 4270 0.0 1.008
3828 A 143 MF A2 4271 0.0 72.06679999999997
3829 opls_902 143 MF N12 4272 -0.407374 14.0067
3830 opls_145 143 MF C12 4273 0.682437 12.011
3831 opls_901 143 MF N22 4274 -0.299729 14.0067
3832 opls_157 143 MF C2 4275 0.024672 12.011
3833 opls_156 143 MF H021 4278 0.0 1.008
3834 opls_156 143 MF H022 4279 0.0 1.008
3835 opls_910 143 MF H31 4280 0.0 1.008
3836 A 143 MF A3 4281 0.0 72.06679999999997
3837 opls_902 143 MF N13 4282 -0.407483 14.0067
3838 opls_145 143 MF C13 4283 0.682492 12.011
3839 opls_901 143 MF N23 4284 -0.299758 14.0067
3840 opls_157 143 MF C3 4285 0.024689 12.011
3841 opls_154 143 MF O3 4286 0.0 15.9994
3842 opls_156 143 MF H031 4288 0.0 1.008
3843 opls_156 143 MF H032 4289 0.0 1.008
3844 opls_910 143 MF H11 4290 0.0 1.008
3845 A 144 MF A1 4291 0.0 72.06679999999997
3846 opls_902 144 MF N11 4292 -0.407377 14.0067
3847 opls_145 144 MF C11 4293 0.682493 12.011
3848 opls_901 144 MF N21 4294 -0.299731 14.0067
3849 opls_157 144 MF C1 4295 0.024669 12.011
3850 opls_154 144 MF O1 4296 0.0 15.9994
3851 opls_156 144 MF H011 4298 0.0 1.008
3852 opls_156 144 MF H012 4299 0.0 1.008
3853 opls_910 144 MF H21 4300 0.0 1.008
3854 A 144 MF A2 4301 0.0 72.06679999999997
3855 opls_902 144 MF N12 4302 -0.407374 14.0067
3856 opls_145 144 MF C12 4303 0.682437 12.011
3857 opls_901 144 MF N22 4304 -0.299729 14.0067
3858 opls_157 144 MF C2 4305 0.024672 12.011
3859 opls_154 144 MF O2 4306 0.0 15.9994
3860 opls_156 144 MF H021 4308 0.0 1.008
3861 opls_156 144 MF H022 4309 0.0 1.008
3862 opls_910 144 MF H31 4310 0.0 1.008
3863 A 144 MF A3 4311 0.0 72.06679999999997
3864 opls_902 144 MF N13 4312 -0.407483 14.0067
3865 opls_145 144 MF C13 4313 0.682492 12.011
3866 opls_901 144 MF N23 4314 -0.299758 14.0067
3867 opls_157 144 MF C3 4315 0.024689 12.011
3868 opls_156 144 MF H031 4318 0.0 1.008
3869 opls_156 144 MF H032 4319 0.0 1.008
3870 opls_910 144 MF H11 4320 0.0 1.008
3871 A 145 MF A1 4321 0.0 72.06679999999997
3872 opls_902 145 MF N11 4322 -0.407377 14.0067
3873 opls_145 145 MF C11 4323 0.682493 12.011
3874 opls_901 145 MF N21 4324 -0.299731 14.0067
3875 opls_157 145 MF C1 4325 0.024669 12.011
3876 opls_154 145 MF O1 4326 0.0 15.9994
3877 opls_156 145 MF H011 4328 0.0 1.008
3878 opls_156 145 MF H012 4329 0.0 1.008
3879 opls_910 145 MF H21 4330 0.0 1.008
3880 A 145 MF A2 4331 0.0 72.06679999999997
3881 opls_902 145 MF N12 4332 -0.407374 14.0067
3882 opls_145 145 MF C12 4333 0.682437 12.011
3883 opls_901 145 MF N22 4334 -0.299729 14.0067
3884 opls_157 145 MF C2 4335 0.024672 12.011
3885 opls_154 145 MF O2 4336 0.0 15.9994
3886 opls_155 145 MF H02 4337 0.0 1.008
3887 opls_156 145 MF H021 4338 0.0 1.008
3888 opls_156 145 MF H022 4339 0.0 1.008
3889 opls_910 145 MF H31 4340 0.0 1.008
3890 A 145 MF A3 4341 0.0 72.06679999999997
3891 opls_902 145 MF N13 4342 -0.407483 14.0067
3892 opls_145 145 MF C13 4343 0.682492 12.011
3893 opls_901 145 MF N23 4344 -0.299758 14.0067
3894 opls_157 145 MF C3 4345 0.024689 12.011
3895 opls_154 145 MF O3 4346 0.0 15.9994
3896 opls_156 145 MF H031 4348 0.0 1.008
3897 opls_156 145 MF H032 4349 0.0 1.008
3898 opls_910 145 MF H11 4350 0.0 1.008
3899 A 146 MF A1 4351 0.0 72.06679999999997
3900 opls_902 146 MF N11 4352 -0.407377 14.0067
3901 opls_145 146 MF C11 4353 0.682493 12.011
3902 opls_901 146 MF N21 4354 -0.299731 14.0067
3903 opls_157 146 MF C1 4355 0.024669 12.011
3904 opls_154 146 MF O1 4356 0.0 15.9994
3905 opls_155 146 MF H01 4357 0.0 1.008
3906 opls_156 146 MF H011 4358 0.0 1.008
3907 opls_156 146 MF H012 4359 0.0 1.008
3908 opls_910 146 MF H21 4360 0.0 1.008
3909 A 146 MF A2 4361 0.0 72.06679999999997
3910 opls_902 146 MF N12 4362 -0.407374 14.0067
3911 opls_145 146 MF C12 4363 0.682437 12.011
3912 opls_901 146 MF N22 4364 -0.299729 14.0067
3913 opls_157 146 MF C2 4365 0.024672 12.011
3914 opls_156 146 MF H021 4368 0.0 1.008
3915 opls_156 146 MF H022 4369 0.0 1.008
3916 opls_910 146 MF H31 4370 0.0 1.008
3917 A 146 MF A3 4371 0.0 72.06679999999997
3918 opls_902 146 MF N13 4372 -0.407483 14.0067
3919 opls_145 146 MF C13 4373 0.682492 12.011
3920 opls_901 146 MF N23 4374 -0.299758 14.0067
3921 opls_157 146 MF C3 4375 0.024689 12.011
3922 opls_154 146 MF O3 4376 0.0 15.9994
3923 opls_156 146 MF H031 4378 0.0 1.008
3924 opls_156 146 MF H032 4379 0.0 1.008
3925 opls_910 146 MF H11 4380 0.0 1.008
3926 A 147 MF A1 4381 0.0 72.06679999999997
3927 opls_902 147 MF N11 4382 -0.407377 14.0067
3928 opls_145 147 MF C11 4383 0.682493 12.011
3929 opls_901 147 MF N21 4384 -0.299731 14.0067
3930 opls_157 147 MF C1 4385 0.024669 12.011
3931 opls_154 147 MF O1 4386 0.0 15.9994
3932 opls_156 147 MF H011 4388 0.0 1.008
3933 opls_156 147 MF H012 4389 0.0 1.008
3934 opls_910 147 MF H21 4390 0.0 1.008
3935 A 147 MF A2 4391 0.0 72.06679999999997
3936 opls_902 147 MF N12 4392 -0.407374 14.0067
3937 opls_145 147 MF C12 4393 0.682437 12.011
3938 opls_901 147 MF N22 4394 -0.299729 14.0067
3939 opls_157 147 MF C2 4395 0.024672 12.011
3940 opls_154 147 MF O2 4396 0.0 15.9994
3941 opls_156 147 MF H021 4398 0.0 1.008
3942 opls_156 147 MF H022 4399 0.0 1.008
3943 opls_910 147 MF H31 4400 0.0 1.008
3944 A 147 MF A3 4401 0.0 72.06679999999997
3945 opls_902 147 MF N13 4402 -0.407483 14.0067
3946 opls_145 147 MF C13 4403 0.682492 12.011
3947 opls_901 147 MF N23 4404 -0.299758 14.0067
3948 opls_157 147 MF C3 4405 0.024689 12.011
3949 opls_154 147 MF O3 4406 0.0 15.9994
3950 opls_156 147 MF H031 4408 0.0 1.008
3951 opls_156 147 MF H032 4409 0.0 1.008
3952 opls_910 147 MF H11 4410 0.0 1.008
3953 A 148 MF A1 4411 0.0 72.06679999999997
3954 opls_902 148 MF N11 4412 -0.407377 14.0067
3955 opls_145 148 MF C11 4413 0.682493 12.011
3956 opls_901 148 MF N21 4414 -0.299731 14.0067
3957 opls_157 148 MF C1 4415 0.024669 12.011
3958 opls_154 148 MF O1 4416 0.0 15.9994
3959 opls_156 148 MF H011 4418 0.0 1.008
3960 opls_156 148 MF H012 4419 0.0 1.008
3961 opls_910 148 MF H21 4420 0.0 1.008
3962 A 148 MF A2 4421 0.0 72.06679999999997
3963 opls_902 148 MF N12 4422 -0.407374 14.0067
3964 opls_145 148 MF C12 4423 0.682437 12.011
3965 opls_901 148 MF N22 4424 -0.299729 14.0067
3966 opls_157 148 MF C2 4425 0.024672 12.011
3967 opls_154 148 MF O2 4426 0.0 15.9994
3968 opls_155 148 MF H02 4427 0.0 1.008
3969 opls_156 148 MF H021 4428 0.0 1.008
3970 opls_156 148 MF H022 4429 0.0 1.008
3971 opls_910 148 MF H31 4430 0.0 1.008
3972 A 148 MF A3 4431 0.0 72.06679999999997
3973 opls_902 148 MF N13 4432 -0.407483 14.0067
3974 opls_145 148 MF C13 4433 0.682492 12.011
3975 opls_901 148 MF N23 4434 -0.299758 14.0067
3976 opls_157 148 MF C3 4435 0.024689 12.011
3977 opls_156 148 MF H031 4438 0.0 1.008
3978 opls_156 148 MF H032 4439 0.0 1.008
3979 opls_910 148 MF H11 4440 0.0 1.008
3980 A 149 MF A1 4441 0.0 72.06679999999997
3981 opls_902 149 MF N11 4442 -0.407377 14.0067
3982 opls_145 149 MF C11 4443 0.682493 12.011
3983 opls_901 149 MF N21 4444 -0.299731 14.0067
3984 opls_157 149 MF C1 4445 0.024669 12.011
3985 opls_156 149 MF H011 4448 0.0 1.008
3986 opls_156 149 MF H012 4449 0.0 1.008
3987 opls_910 149 MF H21 4450 0.0 1.008
3988 A 149 MF A2 4451 0.0 72.06679999999997
3989 opls_902 149 MF N12 4452 -0.407374 14.0067
3990 opls_145 149 MF C12 4453 0.682437 12.011
3991 opls_901 149 MF N22 4454 -0.299729 14.0067
3992 opls_157 149 MF C2 4455 0.024672 12.011
3993 opls_154 149 MF O2 4456 0.0 15.9994
3994 opls_156 149 MF H021 4458 0.0 1.008
3995 opls_156 149 MF H022 4459 0.0 1.008
3996 opls_910 149 MF H31 4460 0.0 1.008
3997 A 149 MF A3 4461 0.0 72.06679999999997
3998 opls_902 149 MF N13 4462 -0.407483 14.0067
3999 opls_145 149 MF C13 4463 0.682492 12.011
4000 opls_901 149 MF N23 4464 -0.299758 14.0067
4001 opls_157 149 MF C3 4465 0.024689 12.011
4002 opls_154 149 MF O3 4466 0.0 15.9994
4003 opls_156 149 MF H031 4468 0.0 1.008
4004 opls_156 149 MF H032 4469 0.0 1.008
4005 opls_910 149 MF H11 4470 0.0 1.008
4006 A 150 MF A1 4471 0.0 72.06679999999997
4007 opls_902 150 MF N11 4472 -0.407377 14.0067
4008 opls_145 150 MF C11 4473 0.682493 12.011
4009 opls_901 150 MF N21 4474 -0.299731 14.0067
4010 opls_157 150 MF C1 4475 0.024669 12.011
4011 opls_154 150 MF O1 4476 0.0 15.9994
4012 opls_156 150 MF H011 4478 0.0 1.008
4013 opls_156 150 MF H012 4479 0.0 1.008
4014 opls_910 150 MF H21 4480 0.0 1.008
4015 A 150 MF A2 4481 0.0 72.06679999999997
4016 opls_902 150 MF N12 4482 -0.407374 14.0067
4017 opls_145 150 MF C12 4483 0.682437 12.011
4018 opls_901 150 MF N22 4484 -0.299729 14.0067
4019 opls_157 150 MF C2 4485 0.024672 12.011
4020 opls_154 150 MF O2 4486 0.0 15.9994
4021 opls_156 150 MF H021 4488 0.0 1.008
4022 opls_156 150 MF H022 4489 0.0 1.008
4023 opls_910 150 MF H31 4490 0.0 1.008
4024 A 150 MF A3 4491 0.0 72.06679999999997
4025 opls_902 150 MF N13 4492 -0.407483 14.0067
4026 opls_145 150 MF C13 4493 0.682492 12.011
4027 opls_901 150 MF N23 4494 -0.299758 14.0067
4028 opls_157 150 MF C3 4495 0.024689 12.011
4029 opls_154 150 MF O3 4496 0.0 15.9994
4030 opls_156 150 MF H031 4498 0.0 1.008
4031 opls_156 150 MF H032 4499 0.0 1.008
4032 opls_910 150 MF H11 4500 0.0 1.008
4033 A 151 MF A1 4501 0.0 72.06679999999997
4034 opls_902 151 MF N11 4502 -0.407377 14.0067
4035 opls_145 151 MF C11 4503 0.682493 12.011
4036 opls_901 151 MF N21 4504 -0.299731 14.0067
4037 opls_157 151 MF C1 4505 0.024669 12.011
4038 opls_154 151 MF O1 4506 0.0 15.9994
4039 opls_156 151 MF H011 4508 0.0 1.008
4040 opls_156 151 MF H012 4509 0.0 1.008
4041 opls_910 151 MF H21 4510 0.0 1.008
4042 A 151 MF A2 4511 0.0 72.06679999999997
4043 opls_902 151 MF N12 4512 -0.407374 14.0067
4044 opls_145 151 MF C12 4513 0.682437 12.011
4045 opls_901 151 MF N22 4514 -0.299729 14.0067
4046 opls_157 151 MF C2 4515 0.024672 12.011
4047 opls_156 151 MF H021 4518 0.0 1.008
4048 opls_156 151 MF H022 4519 0.0 1.008
4049 opls_910 151 MF H31 4520 0.0 1.008
4050 A 151 MF A3 4521 0.0 72.06679999999997
4051 opls_902 151 MF N13 4522 -0.407483 14.0067
4052 opls_145 151 MF C13 4523 0.682492 12.011
4053 opls_901 151 MF N23 4524 -0.299758 14.0067
4054 opls_157 151 MF C3 4525 0.024689 12.011
4055 opls_154 151 MF O3 4526 0.0 15.9994
4056 opls_156 151 MF H031 4528 0.0 1.008
4057 opls_156 151 MF H032 4529 0.0 1.008
4058 opls_910 151 MF H11 4530 0.0 1.008
4059 A 152 MF A1 4531 0.0 72.06679999999997
4060 opls_902 152 MF N11 4532 -0.407377 14.0067
4061 opls_145 152 MF C11 4533 0.682493 12.011
4062 opls_901 152 MF N21 4534 -0.299731 14.0067
4063 opls_157 152 MF C1 4535 0.024669 12.011
4064 opls_154 152 MF O1 4536 0.0 15.9994
4065 opls_156 152 MF H011 4538 0.0 1.008
4066 opls_156 152 MF H012 4539 0.0 1.008
4067 opls_910 152 MF H21 4540 0.0 1.008
4068 A 152 MF A2 4541 0.0 72.06679999999997
4069 opls_902 152 MF N12 4542 -0.407374 14.0067
4070 opls_145 152 MF C12 4543 0.682437 12.011
4071 opls_901 152 MF N22 4544 -0.299729 14.0067
4072 opls_157 152 MF C2 4545 0.024672 12.011
4073 opls_156 152 MF H021 4548 0.0 1.008
4074 opls_156 152 MF H022 4549 0.0 1.008
4075 opls_910 152 MF H31 4550 0.0 1.008
4076 A 152 MF A3 4551 0.0 72.06679999999997
4077 opls_902 152 MF N13 4552 -0.407483 14.0067
4078 opls_145 152 MF C13 4553 0.682492 12.011
4079 opls_901 152 MF N23 4554 -0.299758 14.0067
4080 opls_157 152 MF C3 4555 0.024689 12.011
4081 opls_156 152 MF H031 4558 0.0 1.008
4082 opls_156 152 MF H032 4559 0.0 1.008
4083 opls_910 152 MF H11 4560 0.0 1.008
4084 A 153 MF A1 4561 0.0 72.06679999999997
4085 opls_902 153 MF N11 4562 -0.407377 14.0067
4086 opls_145 153 MF C11 4563 0.682493 12.011
4087 opls_901 153 MF N21 4564 -0.299731 14.0067
4088 opls_157 153 MF C1 4565 0.024669 12.011
4089 opls_154 153 MF O1 4566 0.0 15.9994
4090 opls_155 153 MF H01 4567 0.0 1.008
4091 opls_156 153 MF H011 4568 0.0 1.008
4092 opls_156 153 MF H012 4569 0.0 1.008
4093 opls_910 153 MF H21 4570 0.0 1.008
4094 A 153 MF A2 4571 0.0 72.06679999999997
4095 opls_902 153 MF N12 4572 -0.407374 14.0067
4096 opls_145 153 MF C12 4573 0.682437 12.011
4097 opls_901 153 MF N22 4574 -0.299729 14.0067
4098 opls_157 153 MF C2 4575 0.024672 12.011
4099 opls_154 153 MF O2 4576 0.0 15.9994
4100 opls_156 153 MF H021 4578 0.0 1.008
4101 opls_156 153 MF H022 4579 0.0 1.008
4102 opls_910 153 MF H31 4580 0.0 1.008
4103 A 153 MF A3 4581 0.0 72.06679999999997
4104 opls_902 153 MF N13 4582 -0.407483 14.0067
4105 opls_145 153 MF C13 4583 0.682492 12.011
4106 opls_901 153 MF N23 4584 -0.299758 14.0067
4107 opls_157 153 MF C3 4585 0.024689 12.011
4108 opls_154 153 MF O3 4586 0.0 15.9994
4109 opls_156 153 MF H031 4588 0.0 1.008
4110 opls_156 153 MF H032 4589 0.0 1.008
4111 opls_910 153 MF H11 4590 0.0 1.008
4112 A 154 MF A1 4591 0.0 72.06679999999997
4113 opls_902 154 MF N11 4592 -0.407377 14.0067
4114 opls_145 154 MF C11 4593 0.682493 12.011
4115 opls_901 154 MF N21 4594 -0.299731 14.0067
4116 opls_157 154 MF C1 4595 0.024669 12.011
4117 opls_154 154 MF O1 4596 0.0 15.9994
4118 opls_156 154 MF H011 4598 0.0 1.008
4119 opls_156 154 MF H012 4599 0.0 1.008
4120 opls_910 154 MF H21 4600 0.0 1.008
4121 A 154 MF A2 4601 0.0 72.06679999999997
4122 opls_902 154 MF N12 4602 -0.407374 14.0067
4123 opls_145 154 MF C12 4603 0.682437 12.011
4124 opls_901 154 MF N22 4604 -0.299729 14.0067
4125 opls_157 154 MF C2 4605 0.024672 12.011
4126 opls_154 154 MF O2 4606 0.0 15.9994
4127 opls_156 154 MF H021 4608 0.0 1.008
4128 opls_156 154 MF H022 4609 0.0 1.008
4129 opls_910 154 MF H31 4610 0.0 1.008
4130 A 154 MF A3 4611 0.0 72.06679999999997
4131 opls_902 154 MF N13 4612 -0.407483 14.0067
4132 opls_145 154 MF C13 4613 0.682492 12.011
4133 opls_901 154 MF N23 4614 -0.299758 14.0067
4134 opls_157 154 MF C3 4615 0.024689 12.011
4135 opls_156 154 MF H031 4618 0.0 1.008
4136 opls_156 154 MF H032 4619 0.0 1.008
4137 opls_910 154 MF H11 4620 0.0 1.008
4138 A 155 MF A1 4621 0.0 72.06679999999997
4139 opls_902 155 MF N11 4622 -0.407377 14.0067
4140 opls_145 155 MF C11 4623 0.682493 12.011
4141 opls_901 155 MF N21 4624 -0.299731 14.0067
4142 opls_157 155 MF C1 4625 0.024669 12.011
4143 opls_154 155 MF O1 4626 0.0 15.9994
4144 opls_156 155 MF H011 4628 0.0 1.008
4145 opls_156 155 MF H012 4629 0.0 1.008
4146 opls_910 155 MF H21 4630 0.0 1.008
4147 A 155 MF A2 4631 0.0 72.06679999999997
4148 opls_902 155 MF N12 4632 -0.407374 14.0067
4149 opls_145 155 MF C12 4633 0.682437 12.011
4150 opls_901 155 MF N22 4634 -0.299729 14.0067
4151 opls_157 155 MF C2 4635 0.024672 12.011
4152 opls_156 155 MF H021 4638 0.0 1.008
4153 opls_156 155 MF H022 4639 0.0 1.008
4154 opls_910 155 MF H31 4640 0.0 1.008
4155 A 155 MF A3 4641 0.0 72.06679999999997
4156 opls_902 155 MF N13 4642 -0.407483 14.0067
4157 opls_145 155 MF C13 4643 0.682492 12.011
4158 opls_901 155 MF N23 4644 -0.299758 14.0067
4159 opls_157 155 MF C3 4645 0.024689 12.011
4160 opls_154 155 MF O3 4646 0.0 15.9994
4161 opls_156 155 MF H031 4648 0.0 1.008
4162 opls_156 155 MF H032 4649 0.0 1.008
4163 opls_910 155 MF H11 4650 0.0 1.008
4164 A 156 MF A1 4651 0.0 72.06679999999997
4165 opls_902 156 MF N11 4652 -0.407377 14.0067
4166 opls_145 156 MF C11 4653 0.682493 12.011
4167 opls_901 156 MF N21 4654 -0.299731 14.0067
4168 opls_157 156 MF C1 4655 0.024669 12.011
4169 opls_156 156 MF H011 4658 0.0 1.008
4170 opls_156 156 MF H012 4659 0.0 1.008
4171 opls_910 156 MF H21 4660 0.0 1.008
4172 A 156 MF A2 4661 0.0 72.06679999999997
4173 opls_902 156 MF N12 4662 -0.407374 14.0067
4174 opls_145 156 MF C12 4663 0.682437 12.011
4175 opls_901 156 MF N22 4664 -0.299729 14.0067
4176 opls_157 156 MF C2 4665 0.024672 12.011
4177 opls_154 156 MF O2 4666 0.0 15.9994
4178 opls_155 156 MF H02 4667 0.0 1.008
4179 opls_156 156 MF H021 4668 0.0 1.008
4180 opls_156 156 MF H022 4669 0.0 1.008
4181 opls_910 156 MF H31 4670 0.0 1.008
4182 A 156 MF A3 4671 0.0 72.06679999999997
4183 opls_902 156 MF N13 4672 -0.407483 14.0067
4184 opls_145 156 MF C13 4673 0.682492 12.011
4185 opls_901 156 MF N23 4674 -0.299758 14.0067
4186 opls_157 156 MF C3 4675 0.024689 12.011
4187 opls_154 156 MF O3 4676 0.0 15.9994
4188 opls_156 156 MF H031 4678 0.0 1.008
4189 opls_156 156 MF H032 4679 0.0 1.008
4190 opls_910 156 MF H11 4680 0.0 1.008
4191 A 157 MF A1 4681 0.0 72.06679999999997
4192 opls_902 157 MF N11 4682 -0.407377 14.0067
4193 opls_145 157 MF C11 4683 0.682493 12.011
4194 opls_901 157 MF N21 4684 -0.299731 14.0067
4195 opls_157 157 MF C1 4685 0.024669 12.011
4196 opls_154 157 MF O1 4686 0.0 15.9994
4197 opls_155 157 MF H01 4687 0.0 1.008
4198 opls_156 157 MF H011 4688 0.0 1.008
4199 opls_156 157 MF H012 4689 0.0 1.008
4200 opls_910 157 MF H21 4690 0.0 1.008
4201 A 157 MF A2 4691 0.0 72.06679999999997
4202 opls_902 157 MF N12 4692 -0.407374 14.0067
4203 opls_145 157 MF C12 4693 0.682437 12.011
4204 opls_901 157 MF N22 4694 -0.299729 14.0067
4205 opls_157 157 MF C2 4695 0.024672 12.011
4206 opls_154 157 MF O2 4696 0.0 15.9994
4207 opls_156 157 MF H021 4698 0.0 1.008
4208 opls_156 157 MF H022 4699 0.0 1.008
4209 opls_910 157 MF H31 4700 0.0 1.008
4210 A 157 MF A3 4701 0.0 72.06679999999997
4211 opls_902 157 MF N13 4702 -0.407483 14.0067
4212 opls_145 157 MF C13 4703 0.682492 12.011
4213 opls_901 157 MF N23 4704 -0.299758 14.0067
4214 opls_157 157 MF C3 4705 0.024689 12.011
4215 opls_154 157 MF O3 4706 0.0 15.9994
4216 opls_156 157 MF H031 4708 0.0 1.008
4217 opls_156 157 MF H032 4709 0.0 1.008
4218 opls_910 157 MF H11 4710 0.0 1.008
4219 A 158 MF A1 4711 0.0 72.06679999999997
4220 opls_902 158 MF N11 4712 -0.407377 14.0067
4221 opls_145 158 MF C11 4713 0.682493 12.011
4222 opls_901 158 MF N21 4714 -0.299731 14.0067
4223 opls_157 158 MF C1 4715 0.024669 12.011
4224 opls_154 158 MF O1 4716 0.0 15.9994
4225 opls_155 158 MF H01 4717 0.0 1.008
4226 opls_156 158 MF H011 4718 0.0 1.008
4227 opls_156 158 MF H012 4719 0.0 1.008
4228 opls_910 158 MF H21 4720 0.0 1.008
4229 A 158 MF A2 4721 0.0 72.06679999999997
4230 opls_902 158 MF N12 4722 -0.407374 14.0067
4231 opls_145 158 MF C12 4723 0.682437 12.011
4232 opls_901 158 MF N22 4724 -0.299729 14.0067
4233 opls_157 158 MF C2 4725 0.024672 12.011
4234 opls_154 158 MF O2 4726 0.0 15.9994
4235 opls_156 158 MF H021 4728 0.0 1.008
4236 opls_156 158 MF H022 4729 0.0 1.008
4237 opls_910 158 MF H31 4730 0.0 1.008
4238 A 158 MF A3 4731 0.0 72.06679999999997
4239 opls_902 158 MF N13 4732 -0.407483 14.0067
4240 opls_145 158 MF C13 4733 0.682492 12.011
4241 opls_901 158 MF N23 4734 -0.299758 14.0067
4242 opls_157 158 MF C3 4735 0.024689 12.011
4243 opls_154 158 MF O3 4736 0.0 15.9994
4244 opls_156 158 MF H031 4738 0.0 1.008
4245 opls_156 158 MF H032 4739 0.0 1.008
4246 opls_910 158 MF H11 4740 0.0 1.008
4247 A 159 MF A1 4741 0.0 72.06679999999997
4248 opls_902 159 MF N11 4742 -0.407377 14.0067
4249 opls_145 159 MF C11 4743 0.682493 12.011
4250 opls_901 159 MF N21 4744 -0.299731 14.0067
4251 opls_157 159 MF C1 4745 0.024669 12.011
4252 opls_154 159 MF O1 4746 0.0 15.9994
4253 opls_156 159 MF H011 4748 0.0 1.008
4254 opls_156 159 MF H012 4749 0.0 1.008
4255 opls_910 159 MF H21 4750 0.0 1.008
4256 A 159 MF A2 4751 0.0 72.06679999999997
4257 opls_902 159 MF N12 4752 -0.407374 14.0067
4258 opls_145 159 MF C12 4753 0.682437 12.011
4259 opls_901 159 MF N22 4754 -0.299729 14.0067
4260 opls_157 159 MF C2 4755 0.024672 12.011
4261 opls_154 159 MF O2 4756 0.0 15.9994
4262 opls_155 159 MF H02 4757 0.0 1.008
4263 opls_156 159 MF H021 4758 0.0 1.008
4264 opls_156 159 MF H022 4759 0.0 1.008
4265 opls_910 159 MF H31 4760 0.0 1.008
4266 A 159 MF A3 4761 0.0 72.06679999999997
4267 opls_902 159 MF N13 4762 -0.407483 14.0067
4268 opls_145 159 MF C13 4763 0.682492 12.011
4269 opls_901 159 MF N23 4764 -0.299758 14.0067
4270 opls_157 159 MF C3 4765 0.024689 12.011
4271 opls_154 159 MF O3 4766 0.0 15.9994
4272 opls_156 159 MF H031 4768 0.0 1.008
4273 opls_156 159 MF H032 4769 0.0 1.008
4274 opls_910 159 MF H11 4770 0.0 1.008
4275 A 160 MF A1 4771 0.0 72.06679999999997
4276 opls_902 160 MF N11 4772 -0.407377 14.0067
4277 opls_145 160 MF C11 4773 0.682493 12.011
4278 opls_901 160 MF N21 4774 -0.299731 14.0067
4279 opls_157 160 MF C1 4775 0.024669 12.011
4280 opls_156 160 MF H011 4778 0.0 1.008
4281 opls_156 160 MF H012 4779 0.0 1.008
4282 opls_910 160 MF H21 4780 0.0 1.008
4283 A 160 MF A2 4781 0.0 72.06679999999997
4284 opls_902 160 MF N12 4782 -0.407374 14.0067
4285 opls_145 160 MF C12 4783 0.682437 12.011
4286 opls_901 160 MF N22 4784 -0.299729 14.0067
4287 opls_157 160 MF C2 4785 0.024672 12.011
4288 opls_154 160 MF O2 4786 0.0 15.9994
4289 opls_155 160 MF H02 4787 0.0 1.008
4290 opls_156 160 MF H021 4788 0.0 1.008
4291 opls_156 160 MF H022 4789 0.0 1.008
4292 opls_910 160 MF H31 4790 0.0 1.008
4293 A 160 MF A3 4791 0.0 72.06679999999997
4294 opls_902 160 MF N13 4792 -0.407483 14.0067
4295 opls_145 160 MF C13 4793 0.682492 12.011
4296 opls_901 160 MF N23 4794 -0.299758 14.0067
4297 opls_157 160 MF C3 4795 0.024689 12.011
4298 opls_154 160 MF O3 4796 0.0 15.9994
4299 opls_156 160 MF H031 4798 0.0 1.008
4300 opls_156 160 MF H032 4799 0.0 1.008
4301 opls_910 160 MF H11 4800 0.0 1.008
4302 A 161 MF A1 4801 0.0 72.06679999999997
4303 opls_902 161 MF N11 4802 -0.407377 14.0067
4304 opls_145 161 MF C11 4803 0.682493 12.011
4305 opls_901 161 MF N21 4804 -0.299731 14.0067
4306 opls_157 161 MF C1 4805 0.024669 12.011
4307 opls_154 161 MF O1 4806 0.0 15.9994
4308 opls_156 161 MF H011 4808 0.0 1.008
4309 opls_156 161 MF H012 4809 0.0 1.008
4310 opls_910 161 MF H21 4810 0.0 1.008
4311 A 161 MF A2 4811 0.0 72.06679999999997
4312 opls_902 161 MF N12 4812 -0.407374 14.0067
4313 opls_145 161 MF C12 4813 0.682437 12.011
4314 opls_901 161 MF N22 4814 -0.299729 14.0067
4315 opls_157 161 MF C2 4815 0.024672 12.011
4316 opls_156 161 MF H021 4818 0.0 1.008
4317 opls_156 161 MF H022 4819 0.0 1.008
4318 opls_910 161 MF H31 4820 0.0 1.008
4319 A 161 MF A3 4821 0.0 72.06679999999997
4320 opls_902 161 MF N13 4822 -0.407483 14.0067
4321 opls_145 161 MF C13 4823 0.682492 12.011
4322 opls_901 161 MF N23 4824 -0.299758 14.0067
4323 opls_157 161 MF C3 4825 0.024689 12.011
4324 opls_154 161 MF O3 4826 0.0 15.9994
4325 opls_156 161 MF H031 4828 0.0 1.008
4326 opls_156 161 MF H032 4829 0.0 1.008
4327 opls_910 161 MF H11 4830 0.0 1.008
4328 A 162 MF A1 4831 0.0 72.06679999999997
4329 opls_902 162 MF N11 4832 -0.407377 14.0067
4330 opls_145 162 MF C11 4833 0.682493 12.011
4331 opls_901 162 MF N21 4834 -0.299731 14.0067
4332 opls_157 162 MF C1 4835 0.024669 12.011
4333 opls_156 162 MF H011 4838 0.0 1.008
4334 opls_156 162 MF H012 4839 0.0 1.008
4335 opls_910 162 MF H21 4840 0.0 1.008
4336 A 162 MF A2 4841 0.0 72.06679999999997
4337 opls_902 162 MF N12 4842 -0.407374 14.0067
4338 opls_145 162 MF C12 4843 0.682437 12.011
4339 opls_901 162 MF N22 4844 -0.299729 14.0067
4340 opls_157 162 MF C2 4845 0.024672 12.011
4341 opls_154 162 MF O2 4846 0.0 15.9994
4342 opls_156 162 MF H021 4848 0.0 1.008
4343 opls_156 162 MF H022 4849 0.0 1.008
4344 opls_910 162 MF H31 4850 0.0 1.008
4345 A 162 MF A3 4851 0.0 72.06679999999997
4346 opls_902 162 MF N13 4852 -0.407483 14.0067
4347 opls_145 162 MF C13 4853 0.682492 12.011
4348 opls_901 162 MF N23 4854 -0.299758 14.0067
4349 opls_157 162 MF C3 4855 0.024689 12.011
4350 opls_154 162 MF O3 4856 0.0 15.9994
4351 opls_156 162 MF H031 4858 0.0 1.008
4352 opls_156 162 MF H032 4859 0.0 1.008
4353 opls_910 162 MF H11 4860 0.0 1.008
4354 A 163 MF A1 4861 0.0 72.06679999999997
4355 opls_902 163 MF N11 4862 -0.407377 14.0067
4356 opls_145 163 MF C11 4863 0.682493 12.011
4357 opls_901 163 MF N21 4864 -0.299731 14.0067
4358 opls_157 163 MF C1 4865 0.024669 12.011
4359 opls_156 163 MF H011 4868 0.0 1.008
4360 opls_156 163 MF H012 4869 0.0 1.008
4361 opls_910 163 MF H21 4870 0.0 1.008
4362 A 163 MF A2 4871 0.0 72.06679999999997
4363 opls_902 163 MF N12 4872 -0.407374 14.0067
4364 opls_145 163 MF C12 4873 0.682437 12.011
4365 opls_901 163 MF N22 4874 -0.299729 14.0067
4366 opls_157 163 MF C2 4875 0.024672 12.011
4367 opls_156 163 MF H021 4878 0.0 1.008
4368 opls_156 163 MF H022 4879 0.0 1.008
4369 opls_910 163 MF H31 4880 0.0 1.008
4370 A 163 MF A3 4881 0.0 72.06679999999997
4371 opls_902 163 MF N13 4882 -0.407483 14.0067
4372 opls_145 163 MF C13 4883 0.682492 12.011
4373 opls_901 163 MF N23 4884 -0.299758 14.0067
4374 opls_157 163 MF C3 4885 0.024689 12.011
4375 opls_156 163 MF H031 4888 0.0 1.008
4376 opls_156 163 MF H032 4889 0.0 1.008
4377 opls_910 163 MF H11 4890 0.0 1.008
4378 A 164 MF A1 4891 0.0 72.06679999999997
4379 opls_902 164 MF N11 4892 -0.407377 14.0067
4380 opls_145 164 MF C11 4893 0.682493 12.011
4381 opls_901 164 MF N21 4894 -0.299731 14.0067
4382 opls_157 164 MF C1 4895 0.024669 12.011
4383 opls_154 164 MF O1 4896 0.0 15.9994
4384 opls_156 164 MF H011 4898 0.0 1.008
4385 opls_156 164 MF H012 4899 0.0 1.008
4386 opls_910 164 MF H21 4900 0.0 1.008
4387 A 164 MF A2 4901 0.0 72.06679999999997
4388 opls_902 164 MF N12 4902 -0.407374 14.0067
4389 opls_145 164 MF C12 4903 0.682437 12.011
4390 opls_901 164 MF N22 4904 -0.299729 14.0067
4391 opls_157 164 MF C2 4905 0.024672 12.011
4392 opls_154 164 MF O2 4906 0.0 15.9994
4393 opls_156 164 MF H021 4908 0.0 1.008
4394 opls_156 164 MF H022 4909 0.0 1.008
4395 opls_910 164 MF H31 4910 0.0 1.008
4396 A 164 MF A3 4911 0.0 72.06679999999997
4397 opls_902 164 MF N13 4912 -0.407483 14.0067
4398 opls_145 164 MF C13 4913 0.682492 12.011
4399 opls_901 164 MF N23 4914 -0.299758 14.0067
4400 opls_157 164 MF C3 4915 0.024689 12.011
4401 opls_154 164 MF O3 4916 0.0 15.9994
4402 opls_155 164 MF H03 4917 0.0 1.008
4403 opls_156 164 MF H031 4918 0.0 1.008
4404 opls_156 164 MF H032 4919 0.0 1.008
4405 opls_910 164 MF H11 4920 0.0 1.008
4406 A 165 MF A1 4921 0.0 72.06679999999997
4407 opls_902 165 MF N11 4922 -0.407377 14.0067
4408 opls_145 165 MF C11 4923 0.682493 12.011
4409 opls_901 165 MF N21 4924 -0.299731 14.0067
4410 opls_157 165 MF C1 4925 0.024669 12.011
4411 opls_154 165 MF O1 4926 0.0 15.9994
4412 opls_156 165 MF H011 4928 0.0 1.008
4413 opls_156 165 MF H012 4929 0.0 1.008
4414 opls_910 165 MF H21 4930 0.0 1.008
4415 A 165 MF A2 4931 0.0 72.06679999999997
4416 opls_902 165 MF N12 4932 -0.407374 14.0067
4417 opls_145 165 MF C12 4933 0.682437 12.011
4418 opls_901 165 MF N22 4934 -0.299729 14.0067
4419 opls_157 165 MF C2 4935 0.024672 12.011
4420 opls_154 165 MF O2 4936 0.0 15.9994
4421 opls_156 165 MF H021 4938 0.0 1.008
4422 opls_156 165 MF H022 4939 0.0 1.008
4423 opls_910 165 MF H31 4940 0.0 1.008
4424 A 165 MF A3 4941 0.0 72.06679999999997
4425 opls_902 165 MF N13 4942 -0.407483 14.0067
4426 opls_145 165 MF C13 4943 0.682492 12.011
4427 opls_901 165 MF N23 4944 -0.299758 14.0067
4428 opls_157 165 MF C3 4945 0.024689 12.011
4429 opls_154 165 MF O3 4946 0.0 15.9994
4430 opls_156 165 MF H031 4948 0.0 1.008
4431 opls_156 165 MF H032 4949 0.0 1.008
4432 opls_910 165 MF H11 4950 0.0 1.008
4433 A 166 MF A1 4951 0.0 72.06679999999997
4434 opls_902 166 MF N11 4952 -0.407377 14.0067
4435 opls_145 166 MF C11 4953 0.682493 12.011
4436 opls_901 166 MF N21 4954 -0.299731 14.0067
4437 opls_157 166 MF C1 4955 0.024669 12.011
4438 opls_154 166 MF O1 4956 0.0 15.9994
4439 opls_156 166 MF H011 4958 0.0 1.008
4440 opls_156 166 MF H012 4959 0.0 1.008
4441 opls_910 166 MF H21 4960 0.0 1.008
4442 A 166 MF A2 4961 0.0 72.06679999999997
4443 opls_902 166 MF N12 4962 -0.407374 14.0067
4444 opls_145 166 MF C12 4963 0.682437 12.011
4445 opls_901 166 MF N22 4964 -0.299729 14.0067
4446 opls_157 166 MF C2 4965 0.024672 12.011
4447 opls_154 166 MF O2 4966 0.0 15.9994
4448 opls_156 166 MF H021 4968 0.0 1.008
4449 opls_156 166 MF H022 4969 0.0 1.008
4450 opls_910 166 MF H31 4970 0.0 1.008
4451 A 166 MF A3 4971 0.0 72.06679999999997
4452 opls_902 166 MF N13 4972 -0.407483 14.0067
4453 opls_145 166 MF C13 4973 0.682492 12.011
4454 opls_901 166 MF N23 4974 -0.299758 14.0067
4455 opls_157 166 MF C3 4975 0.024689 12.011
4456 opls_154 166 MF O3 4976 0.0 15.9994
4457 opls_156 166 MF H031 4978 0.0 1.008
4458 opls_156 166 MF H032 4979 0.0 1.008
4459 opls_910 166 MF H11 4980 0.0 1.008
4460 A 167 MF A1 4981 0.0 72.06679999999997
4461 opls_902 167 MF N11 4982 -0.407377 14.0067
4462 opls_145 167 MF C11 4983 0.682493 12.011
4463 opls_901 167 MF N21 4984 -0.299731 14.0067
4464 opls_157 167 MF C1 4985 0.024669 12.011
4465 opls_154 167 MF O1 4986 0.0 15.9994
4466 opls_156 167 MF H011 4988 0.0 1.008
4467 opls_156 167 MF H012 4989 0.0 1.008
4468 opls_910 167 MF H21 4990 0.0 1.008
4469 A 167 MF A2 4991 0.0 72.06679999999997
4470 opls_902 167 MF N12 4992 -0.407374 14.0067
4471 opls_145 167 MF C12 4993 0.682437 12.011
4472 opls_901 167 MF N22 4994 -0.299729 14.0067
4473 opls_157 167 MF C2 4995 0.024672 12.011
4474 opls_154 167 MF O2 4996 0.0 15.9994
4475 opls_156 167 MF H021 4998 0.0 1.008
4476 opls_156 167 MF H022 4999 0.0 1.008
4477 opls_910 167 MF H31 5000 0.0 1.008
4478 A 167 MF A3 5001 0.0 72.06679999999997
4479 opls_902 167 MF N13 5002 -0.407483 14.0067
4480 opls_145 167 MF C13 5003 0.682492 12.011
4481 opls_901 167 MF N23 5004 -0.299758 14.0067
4482 opls_157 167 MF C3 5005 0.024689 12.011
4483 opls_154 167 MF O3 5006 0.0 15.9994
4484 opls_156 167 MF H031 5008 0.0 1.008
4485 opls_156 167 MF H032 5009 0.0 1.008
4486 opls_910 167 MF H11 5010 0.0 1.008
4487 A 168 MF A1 5011 0.0 72.06679999999997
4488 opls_902 168 MF N11 5012 -0.407377 14.0067
4489 opls_145 168 MF C11 5013 0.682493 12.011
4490 opls_901 168 MF N21 5014 -0.299731 14.0067
4491 opls_157 168 MF C1 5015 0.024669 12.011
4492 opls_156 168 MF H011 5018 0.0 1.008
4493 opls_156 168 MF H012 5019 0.0 1.008
4494 opls_910 168 MF H21 5020 0.0 1.008
4495 A 168 MF A2 5021 0.0 72.06679999999997
4496 opls_902 168 MF N12 5022 -0.407374 14.0067
4497 opls_145 168 MF C12 5023 0.682437 12.011
4498 opls_901 168 MF N22 5024 -0.299729 14.0067
4499 opls_157 168 MF C2 5025 0.024672 12.011
4500 opls_154 168 MF O2 5026 0.0 15.9994
4501 opls_156 168 MF H021 5028 0.0 1.008
4502 opls_156 168 MF H022 5029 0.0 1.008
4503 opls_910 168 MF H31 5030 0.0 1.008
4504 A 168 MF A3 5031 0.0 72.06679999999997
4505 opls_902 168 MF N13 5032 -0.407483 14.0067
4506 opls_145 168 MF C13 5033 0.682492 12.011
4507 opls_901 168 MF N23 5034 -0.299758 14.0067
4508 opls_157 168 MF C3 5035 0.024689 12.011
4509 opls_156 168 MF H031 5038 0.0 1.008
4510 opls_156 168 MF H032 5039 0.0 1.008
4511 opls_910 168 MF H11 5040 0.0 1.008
4512 A 169 MF A1 5041 0.0 72.06679999999997
4513 opls_902 169 MF N11 5042 -0.407377 14.0067
4514 opls_145 169 MF C11 5043 0.682493 12.011
4515 opls_901 169 MF N21 5044 -0.299731 14.0067
4516 opls_157 169 MF C1 5045 0.024669 12.011
4517 opls_154 169 MF O1 5046 0.0 15.9994
4518 opls_156 169 MF H011 5048 0.0 1.008
4519 opls_156 169 MF H012 5049 0.0 1.008
4520 opls_910 169 MF H21 5050 0.0 1.008
4521 A 169 MF A2 5051 0.0 72.06679999999997
4522 opls_902 169 MF N12 5052 -0.407374 14.0067
4523 opls_145 169 MF C12 5053 0.682437 12.011
4524 opls_901 169 MF N22 5054 -0.299729 14.0067
4525 opls_157 169 MF C2 5055 0.024672 12.011
4526 opls_156 169 MF H021 5058 0.0 1.008
4527 opls_156 169 MF H022 5059 0.0 1.008
4528 opls_910 169 MF H31 5060 0.0 1.008
4529 A 169 MF A3 5061 0.0 72.06679999999997
4530 opls_902 169 MF N13 5062 -0.407483 14.0067
4531 opls_145 169 MF C13 5063 0.682492 12.011
4532 opls_901 169 MF N23 5064 -0.299758 14.0067
4533 opls_157 169 MF C3 5065 0.024689 12.011
4534 opls_154 169 MF O3 5066 0.0 15.9994
4535 opls_156 169 MF H031 5068 0.0 1.008
4536 opls_156 169 MF H032 5069 0.0 1.008
4537 opls_910 169 MF H11 5070 0.0 1.008
4538 A 170 MF A1 5071 0.0 72.06679999999997
4539 opls_902 170 MF N11 5072 -0.407377 14.0067
4540 opls_145 170 MF C11 5073 0.682493 12.011
4541 opls_901 170 MF N21 5074 -0.299731 14.0067
4542 opls_157 170 MF C1 5075 0.024669 12.011
4543 opls_156 170 MF H011 5078 0.0 1.008
4544 opls_156 170 MF H012 5079 0.0 1.008
4545 opls_910 170 MF H21 5080 0.0 1.008
4546 A 170 MF A2 5081 0.0 72.06679999999997
4547 opls_902 170 MF N12 5082 -0.407374 14.0067
4548 opls_145 170 MF C12 5083 0.682437 12.011
4549 opls_901 170 MF N22 5084 -0.299729 14.0067
4550 opls_157 170 MF C2 5085 0.024672 12.011
4551 opls_156 170 MF H021 5088 0.0 1.008
4552 opls_156 170 MF H022 5089 0.0 1.008
4553 opls_910 170 MF H31 5090 0.0 1.008
4554 A 170 MF A3 5091 0.0 72.06679999999997
4555 opls_902 170 MF N13 5092 -0.407483 14.0067
4556 opls_145 170 MF C13 5093 0.682492 12.011
4557 opls_901 170 MF N23 5094 -0.299758 14.0067
4558 opls_157 170 MF C3 5095 0.024689 12.011
4559 opls_154 170 MF O3 5096 0.0 15.9994
4560 opls_156 170 MF H031 5098 0.0 1.008
4561 opls_156 170 MF H032 5099 0.0 1.008
4562 opls_910 170 MF H11 5100 0.0 1.008
4563 A 171 MF A1 5101 0.0 72.06679999999997
4564 opls_902 171 MF N11 5102 -0.407377 14.0067
4565 opls_145 171 MF C11 5103 0.682493 12.011
4566 opls_901 171 MF N21 5104 -0.299731 14.0067
4567 opls_157 171 MF C1 5105 0.024669 12.011
4568 opls_154 171 MF O1 5106 0.0 15.9994
4569 opls_156 171 MF H011 5108 0.0 1.008
4570 opls_156 171 MF H012 5109 0.0 1.008
4571 opls_910 171 MF H21 5110 0.0 1.008
4572 A 171 MF A2 5111 0.0 72.06679999999997
4573 opls_902 171 MF N12 5112 -0.407374 14.0067
4574 opls_145 171 MF C12 5113 0.682437 12.011
4575 opls_901 171 MF N22 5114 -0.299729 14.0067
4576 opls_157 171 MF C2 5115 0.024672 12.011
4577 opls_156 171 MF H021 5118 0.0 1.008
4578 opls_156 171 MF H022 5119 0.0 1.008
4579 opls_910 171 MF H31 5120 0.0 1.008
4580 A 171 MF A3 5121 0.0 72.06679999999997
4581 opls_902 171 MF N13 5122 -0.407483 14.0067
4582 opls_145 171 MF C13 5123 0.682492 12.011
4583 opls_901 171 MF N23 5124 -0.299758 14.0067
4584 opls_157 171 MF C3 5125 0.024689 12.011
4585 opls_154 171 MF O3 5126 0.0 15.9994
4586 opls_156 171 MF H031 5128 0.0 1.008
4587 opls_156 171 MF H032 5129 0.0 1.008
4588 opls_910 171 MF H11 5130 0.0 1.008
4589 A 172 MF A1 5131 0.0 72.06679999999997
4590 opls_902 172 MF N11 5132 -0.407377 14.0067
4591 opls_145 172 MF C11 5133 0.682493 12.011
4592 opls_901 172 MF N21 5134 -0.299731 14.0067
4593 opls_157 172 MF C1 5135 0.024669 12.011
4594 opls_154 172 MF O1 5136 0.0 15.9994
4595 opls_156 172 MF H011 5138 0.0 1.008
4596 opls_156 172 MF H012 5139 0.0 1.008
4597 opls_910 172 MF H21 5140 0.0 1.008
4598 A 172 MF A2 5141 0.0 72.06679999999997
4599 opls_902 172 MF N12 5142 -0.407374 14.0067
4600 opls_145 172 MF C12 5143 0.682437 12.011
4601 opls_901 172 MF N22 5144 -0.299729 14.0067
4602 opls_157 172 MF C2 5145 0.024672 12.011
4603 opls_154 172 MF O2 5146 0.0 15.9994
4604 opls_156 172 MF H021 5148 0.0 1.008
4605 opls_156 172 MF H022 5149 0.0 1.008
4606 opls_910 172 MF H31 5150 0.0 1.008
4607 A 172 MF A3 5151 0.0 72.06679999999997
4608 opls_902 172 MF N13 5152 -0.407483 14.0067
4609 opls_145 172 MF C13 5153 0.682492 12.011
4610 opls_901 172 MF N23 5154 -0.299758 14.0067
4611 opls_157 172 MF C3 5155 0.024689 12.011
4612 opls_156 172 MF H031 5158 0.0 1.008
4613 opls_156 172 MF H032 5159 0.0 1.008
4614 opls_910 172 MF H11 5160 0.0 1.008
4615 A 173 MF A1 5161 0.0 72.06679999999997
4616 opls_902 173 MF N11 5162 -0.407377 14.0067
4617 opls_145 173 MF C11 5163 0.682493 12.011
4618 opls_901 173 MF N21 5164 -0.299731 14.0067
4619 opls_157 173 MF C1 5165 0.024669 12.011
4620 opls_154 173 MF O1 5166 0.0 15.9994
4621 opls_156 173 MF H011 5168 0.0 1.008
4622 opls_156 173 MF H012 5169 0.0 1.008
4623 opls_910 173 MF H21 5170 0.0 1.008
4624 A 173 MF A2 5171 0.0 72.06679999999997
4625 opls_902 173 MF N12 5172 -0.407374 14.0067
4626 opls_145 173 MF C12 5173 0.682437 12.011
4627 opls_901 173 MF N22 5174 -0.299729 14.0067
4628 opls_157 173 MF C2 5175 0.024672 12.011
4629 opls_154 173 MF O2 5176 0.0 15.9994
4630 opls_155 173 MF H02 5177 0.0 1.008
4631 opls_156 173 MF H021 5178 0.0 1.008
4632 opls_156 173 MF H022 5179 0.0 1.008
4633 opls_910 173 MF H31 5180 0.0 1.008
4634 A 173 MF A3 5181 0.0 72.06679999999997
4635 opls_902 173 MF N13 5182 -0.407483 14.0067
4636 opls_145 173 MF C13 5183 0.682492 12.011
4637 opls_901 173 MF N23 5184 -0.299758 14.0067
4638 opls_157 173 MF C3 5185 0.024689 12.011
4639 opls_154 173 MF O3 5186 0.0 15.9994
4640 opls_156 173 MF H031 5188 0.0 1.008
4641 opls_156 173 MF H032 5189 0.0 1.008
4642 opls_910 173 MF H11 5190 0.0 1.008
4643 A 174 MF A1 5191 0.0 72.06679999999997
4644 opls_902 174 MF N11 5192 -0.407377 14.0067
4645 opls_145 174 MF C11 5193 0.682493 12.011
4646 opls_901 174 MF N21 5194 -0.299731 14.0067
4647 opls_157 174 MF C1 5195 0.024669 12.011
4648 opls_154 174 MF O1 5196 0.0 15.9994
4649 opls_156 174 MF H011 5198 0.0 1.008
4650 opls_156 174 MF H012 5199 0.0 1.008
4651 opls_910 174 MF H21 5200 0.0 1.008
4652 A 174 MF A2 5201 0.0 72.06679999999997
4653 opls_902 174 MF N12 5202 -0.407374 14.0067
4654 opls_145 174 MF C12 5203 0.682437 12.011
4655 opls_901 174 MF N22 5204 -0.299729 14.0067
4656 opls_157 174 MF C2 5205 0.024672 12.011
4657 opls_154 174 MF O2 5206 0.0 15.9994
4658 opls_156 174 MF H021 5208 0.0 1.008
4659 opls_156 174 MF H022 5209 0.0 1.008
4660 opls_910 174 MF H31 5210 0.0 1.008
4661 A 174 MF A3 5211 0.0 72.06679999999997
4662 opls_902 174 MF N13 5212 -0.407483 14.0067
4663 opls_145 174 MF C13 5213 0.682492 12.011
4664 opls_901 174 MF N23 5214 -0.299758 14.0067
4665 opls_157 174 MF C3 5215 0.024689 12.011
4666 opls_154 174 MF O3 5216 0.0 15.9994
4667 opls_156 174 MF H031 5218 0.0 1.008
4668 opls_156 174 MF H032 5219 0.0 1.008
4669 opls_910 174 MF H11 5220 0.0 1.008
4670 A 175 MF A1 5221 0.0 72.06679999999997
4671 opls_902 175 MF N11 5222 -0.407377 14.0067
4672 opls_145 175 MF C11 5223 0.682493 12.011
4673 opls_901 175 MF N21 5224 -0.299731 14.0067
4674 opls_157 175 MF C1 5225 0.024669 12.011
4675 opls_154 175 MF O1 5226 0.0 15.9994
4676 opls_156 175 MF H011 5228 0.0 1.008
4677 opls_156 175 MF H012 5229 0.0 1.008
4678 opls_910 175 MF H21 5230 0.0 1.008
4679 A 175 MF A2 5231 0.0 72.06679999999997
4680 opls_902 175 MF N12 5232 -0.407374 14.0067
4681 opls_145 175 MF C12 5233 0.682437 12.011
4682 opls_901 175 MF N22 5234 -0.299729 14.0067
4683 opls_157 175 MF C2 5235 0.024672 12.011
4684 opls_154 175 MF O2 5236 0.0 15.9994
4685 opls_156 175 MF H021 5238 0.0 1.008
4686 opls_156 175 MF H022 5239 0.0 1.008
4687 opls_910 175 MF H31 5240 0.0 1.008
4688 A 175 MF A3 5241 0.0 72.06679999999997
4689 opls_902 175 MF N13 5242 -0.407483 14.0067
4690 opls_145 175 MF C13 5243 0.682492 12.011
4691 opls_901 175 MF N23 5244 -0.299758 14.0067
4692 opls_157 175 MF C3 5245 0.024689 12.011
4693 opls_156 175 MF H031 5248 0.0 1.008
4694 opls_156 175 MF H032 5249 0.0 1.008
4695 opls_910 175 MF H11 5250 0.0 1.008
4696 A 176 MF A1 5251 0.0 72.06679999999997
4697 opls_902 176 MF N11 5252 -0.407377 14.0067
4698 opls_145 176 MF C11 5253 0.682493 12.011
4699 opls_901 176 MF N21 5254 -0.299731 14.0067
4700 opls_157 176 MF C1 5255 0.024669 12.011
4701 opls_154 176 MF O1 5256 0.0 15.9994
4702 opls_156 176 MF H011 5258 0.0 1.008
4703 opls_156 176 MF H012 5259 0.0 1.008
4704 opls_910 176 MF H21 5260 0.0 1.008
4705 A 176 MF A2 5261 0.0 72.06679999999997
4706 opls_902 176 MF N12 5262 -0.407374 14.0067
4707 opls_145 176 MF C12 5263 0.682437 12.011
4708 opls_901 176 MF N22 5264 -0.299729 14.0067
4709 opls_157 176 MF C2 5265 0.024672 12.011
4710 opls_156 176 MF H021 5268 0.0 1.008
4711 opls_156 176 MF H022 5269 0.0 1.008
4712 opls_910 176 MF H31 5270 0.0 1.008
4713 A 176 MF A3 5271 0.0 72.06679999999997
4714 opls_902 176 MF N13 5272 -0.407483 14.0067
4715 opls_145 176 MF C13 5273 0.682492 12.011
4716 opls_901 176 MF N23 5274 -0.299758 14.0067
4717 opls_157 176 MF C3 5275 0.024689 12.011
4718 opls_154 176 MF O3 5276 0.0 15.9994
4719 opls_156 176 MF H031 5278 0.0 1.008
4720 opls_156 176 MF H032 5279 0.0 1.008
4721 opls_910 176 MF H11 5280 0.0 1.008
4722 A 177 MF A1 5281 0.0 72.06679999999997
4723 opls_902 177 MF N11 5282 -0.407377 14.0067
4724 opls_145 177 MF C11 5283 0.682493 12.011
4725 opls_901 177 MF N21 5284 -0.299731 14.0067
4726 opls_157 177 MF C1 5285 0.024669 12.011
4727 opls_154 177 MF O1 5286 0.0 15.9994
4728 opls_156 177 MF H011 5288 0.0 1.008
4729 opls_156 177 MF H012 5289 0.0 1.008
4730 opls_910 177 MF H21 5290 0.0 1.008
4731 A 177 MF A2 5291 0.0 72.06679999999997
4732 opls_902 177 MF N12 5292 -0.407374 14.0067
4733 opls_145 177 MF C12 5293 0.682437 12.011
4734 opls_901 177 MF N22 5294 -0.299729 14.0067
4735 opls_157 177 MF C2 5295 0.024672 12.011
4736 opls_154 177 MF O2 5296 0.0 15.9994
4737 opls_156 177 MF H021 5298 0.0 1.008
4738 opls_156 177 MF H022 5299 0.0 1.008
4739 opls_910 177 MF H31 5300 0.0 1.008
4740 A 177 MF A3 5301 0.0 72.06679999999997
4741 opls_902 177 MF N13 5302 -0.407483 14.0067
4742 opls_145 177 MF C13 5303 0.682492 12.011
4743 opls_901 177 MF N23 5304 -0.299758 14.0067
4744 opls_157 177 MF C3 5305 0.024689 12.011
4745 opls_154 177 MF O3 5306 0.0 15.9994
4746 opls_155 177 MF H03 5307 0.0 1.008
4747 opls_156 177 MF H031 5308 0.0 1.008
4748 opls_156 177 MF H032 5309 0.0 1.008
4749 opls_910 177 MF H11 5310 0.0 1.008
4750 A 178 MF A1 5311 0.0 72.06679999999997
4751 opls_902 178 MF N11 5312 -0.407377 14.0067
4752 opls_145 178 MF C11 5313 0.682493 12.011
4753 opls_901 178 MF N21 5314 -0.299731 14.0067
4754 opls_157 178 MF C1 5315 0.024669 12.011
4755 opls_154 178 MF O1 5316 0.0 15.9994
4756 opls_156 178 MF H011 5318 0.0 1.008
4757 opls_156 178 MF H012 5319 0.0 1.008
4758 opls_910 178 MF H21 5320 0.0 1.008
4759 A 178 MF A2 5321 0.0 72.06679999999997
4760 opls_902 178 MF N12 5322 -0.407374 14.0067
4761 opls_145 178 MF C12 5323 0.682437 12.011
4762 opls_901 178 MF N22 5324 -0.299729 14.0067
4763 opls_157 178 MF C2 5325 0.024672 12.011
4764 opls_154 178 MF O2 5326 0.0 15.9994
4765 opls_156 178 MF H021 5328 0.0 1.008
4766 opls_156 178 MF H022 5329 0.0 1.008
4767 opls_910 178 MF H31 5330 0.0 1.008
4768 A 178 MF A3 5331 0.0 72.06679999999997
4769 opls_902 178 MF N13 5332 -0.407483 14.0067
4770 opls_145 178 MF C13 5333 0.682492 12.011
4771 opls_901 178 MF N23 5334 -0.299758 14.0067
4772 opls_157 178 MF C3 5335 0.024689 12.011
4773 opls_154 178 MF O3 5336 0.0 15.9994
4774 opls_156 178 MF H031 5338 0.0 1.008
4775 opls_156 178 MF H032 5339 0.0 1.008
4776 opls_910 178 MF H11 5340 0.0 1.008
4777 A 179 MF A1 5341 0.0 72.06679999999997
4778 opls_902 179 MF N11 5342 -0.407377 14.0067
4779 opls_145 179 MF C11 5343 0.682493 12.011
4780 opls_901 179 MF N21 5344 -0.299731 14.0067
4781 opls_157 179 MF C1 5345 0.024669 12.011
4782 opls_154 179 MF O1 5346 0.0 15.9994
4783 opls_156 179 MF H011 5348 0.0 1.008
4784 opls_156 179 MF H012 5349 0.0 1.008
4785 opls_910 179 MF H21 5350 0.0 1.008
4786 A 179 MF A2 5351 0.0 72.06679999999997
4787 opls_902 179 MF N12 5352 -0.407374 14.0067
4788 opls_145 179 MF C12 5353 0.682437 12.011
4789 opls_901 179 MF N22 5354 -0.299729 14.0067
4790 opls_157 179 MF C2 5355 0.024672 12.011
4791 opls_154 179 MF O2 5356 0.0 15.9994
4792 opls_156 179 MF H021 5358 0.0 1.008
4793 opls_156 179 MF H022 5359 0.0 1.008
4794 opls_910 179 MF H31 5360 0.0 1.008
4795 A 179 MF A3 5361 0.0 72.06679999999997
4796 opls_902 179 MF N13 5362 -0.407483 14.0067
4797 opls_145 179 MF C13 5363 0.682492 12.011
4798 opls_901 179 MF N23 5364 -0.299758 14.0067
4799 opls_157 179 MF C3 5365 0.024689 12.011
4800 opls_156 179 MF H031 5368 0.0 1.008
4801 opls_156 179 MF H032 5369 0.0 1.008
4802 opls_910 179 MF H11 5370 0.0 1.008
4803 A 180 MF A1 5371 0.0 72.06679999999997
4804 opls_902 180 MF N11 5372 -0.407377 14.0067
4805 opls_145 180 MF C11 5373 0.682493 12.011
4806 opls_901 180 MF N21 5374 -0.299731 14.0067
4807 opls_157 180 MF C1 5375 0.024669 12.011
4808 opls_154 180 MF O1 5376 0.0 15.9994
4809 opls_156 180 MF H011 5378 0.0 1.008
4810 opls_156 180 MF H012 5379 0.0 1.008
4811 opls_910 180 MF H21 5380 0.0 1.008
4812 A 180 MF A2 5381 0.0 72.06679999999997
4813 opls_902 180 MF N12 5382 -0.407374 14.0067
4814 opls_145 180 MF C12 5383 0.682437 12.011
4815 opls_901 180 MF N22 5384 -0.299729 14.0067
4816 opls_157 180 MF C2 5385 0.024672 12.011
4817 opls_154 180 MF O2 5386 0.0 15.9994
4818 opls_156 180 MF H021 5388 0.0 1.008
4819 opls_156 180 MF H022 5389 0.0 1.008
4820 opls_910 180 MF H31 5390 0.0 1.008
4821 A 180 MF A3 5391 0.0 72.06679999999997
4822 opls_902 180 MF N13 5392 -0.407483 14.0067
4823 opls_145 180 MF C13 5393 0.682492 12.011
4824 opls_901 180 MF N23 5394 -0.299758 14.0067
4825 opls_157 180 MF C3 5395 0.024689 12.011
4826 opls_154 180 MF O3 5396 0.0 15.9994
4827 opls_156 180 MF H031 5398 0.0 1.008
4828 opls_156 180 MF H032 5399 0.0 1.008
4829 opls_910 180 MF H11 5400 0.0 1.008
4830 A 181 MF A1 5401 0.0 72.06679999999997
4831 opls_902 181 MF N11 5402 -0.407377 14.0067
4832 opls_145 181 MF C11 5403 0.682493 12.011
4833 opls_901 181 MF N21 5404 -0.299731 14.0067
4834 opls_157 181 MF C1 5405 0.024669 12.011
4835 opls_156 181 MF H011 5408 0.0 1.008
4836 opls_156 181 MF H012 5409 0.0 1.008
4837 opls_910 181 MF H21 5410 0.0 1.008
4838 A 181 MF A2 5411 0.0 72.06679999999997
4839 opls_902 181 MF N12 5412 -0.407374 14.0067
4840 opls_145 181 MF C12 5413 0.682437 12.011
4841 opls_901 181 MF N22 5414 -0.299729 14.0067
4842 opls_157 181 MF C2 5415 0.024672 12.011
4843 opls_156 181 MF H021 5418 0.0 1.008
4844 opls_156 181 MF H022 5419 0.0 1.008
4845 opls_910 181 MF H31 5420 0.0 1.008
4846 A 181 MF A3 5421 0.0 72.06679999999997
4847 opls_902 181 MF N13 5422 -0.407483 14.0067
4848 opls_145 181 MF C13 5423 0.682492 12.011
4849 opls_901 181 MF N23 5424 -0.299758 14.0067
4850 opls_157 181 MF C3 5425 0.024689 12.011
4851 opls_154 181 MF O3 5426 0.0 15.9994
4852 opls_156 181 MF H031 5428 0.0 1.008
4853 opls_156 181 MF H032 5429 0.0 1.008
4854 opls_910 181 MF H11 5430 0.0 1.008
4855 A 182 MF A1 5431 0.0 72.06679999999997
4856 opls_902 182 MF N11 5432 -0.407377 14.0067
4857 opls_145 182 MF C11 5433 0.682493 12.011
4858 opls_901 182 MF N21 5434 -0.299731 14.0067
4859 opls_157 182 MF C1 5435 0.024669 12.011
4860 opls_154 182 MF O1 5436 0.0 15.9994
4861 opls_156 182 MF H011 5438 0.0 1.008
4862 opls_156 182 MF H012 5439 0.0 1.008
4863 opls_910 182 MF H21 5440 0.0 1.008
4864 A 182 MF A2 5441 0.0 72.06679999999997
4865 opls_902 182 MF N12 5442 -0.407374 14.0067
4866 opls_145 182 MF C12 5443 0.682437 12.011
4867 opls_901 182 MF N22 5444 -0.299729 14.0067
4868 opls_157 182 MF C2 5445 0.024672 12.011
4869 opls_156 182 MF H021 5448 0.0 1.008
4870 opls_156 182 MF H022 5449 0.0 1.008
4871 opls_910 182 MF H31 5450 0.0 1.008
4872 A 182 MF A3 5451 0.0 72.06679999999997
4873 opls_902 182 MF N13 5452 -0.407483 14.0067
4874 opls_145 182 MF C13 5453 0.682492 12.011
4875 opls_901 182 MF N23 5454 -0.299758 14.0067
4876 opls_157 182 MF C3 5455 0.024689 12.011
4877 opls_154 182 MF O3 5456 0.0 15.9994
4878 opls_156 182 MF H031 5458 0.0 1.008
4879 opls_156 182 MF H032 5459 0.0 1.008
4880 opls_910 182 MF H11 5460 0.0 1.008
4881 A 183 MF A1 5461 0.0 72.06679999999997
4882 opls_902 183 MF N11 5462 -0.407377 14.0067
4883 opls_145 183 MF C11 5463 0.682493 12.011
4884 opls_901 183 MF N21 5464 -0.299731 14.0067
4885 opls_157 183 MF C1 5465 0.024669 12.011
4886 opls_154 183 MF O1 5466 0.0 15.9994
4887 opls_156 183 MF H011 5468 0.0 1.008
4888 opls_156 183 MF H012 5469 0.0 1.008
4889 opls_910 183 MF H21 5470 0.0 1.008
4890 A 183 MF A2 5471 0.0 72.06679999999997
4891 opls_902 183 MF N12 5472 -0.407374 14.0067
4892 opls_145 183 MF C12 5473 0.682437 12.011
4893 opls_901 183 MF N22 5474 -0.299729 14.0067
4894 opls_157 183 MF C2 5475 0.024672 12.011
4895 opls_154 183 MF O2 5476 0.0 15.9994
4896 opls_156 183 MF H021 5478 0.0 1.008
4897 opls_156 183 MF H022 5479 0.0 1.008
4898 opls_910 183 MF H31 5480 0.0 1.008
4899 A 183 MF A3 5481 0.0 72.06679999999997
4900 opls_902 183 MF N13 5482 -0.407483 14.0067
4901 opls_145 183 MF C13 5483 0.682492 12.011
4902 opls_901 183 MF N23 5484 -0.299758 14.0067
4903 opls_157 183 MF C3 5485 0.024689 12.011
4904 opls_154 183 MF O3 5486 0.0 15.9994
4905 opls_156 183 MF H031 5488 0.0 1.008
4906 opls_156 183 MF H032 5489 0.0 1.008
4907 opls_910 183 MF H11 5490 0.0 1.008
4908 A 184 MF A1 5491 0.0 72.06679999999997
4909 opls_902 184 MF N11 5492 -0.407377 14.0067
4910 opls_145 184 MF C11 5493 0.682493 12.011
4911 opls_901 184 MF N21 5494 -0.299731 14.0067
4912 opls_157 184 MF C1 5495 0.024669 12.011
4913 opls_156 184 MF H011 5498 0.0 1.008
4914 opls_156 184 MF H012 5499 0.0 1.008
4915 opls_910 184 MF H21 5500 0.0 1.008
4916 A 184 MF A2 5501 0.0 72.06679999999997
4917 opls_902 184 MF N12 5502 -0.407374 14.0067
4918 opls_145 184 MF C12 5503 0.682437 12.011
4919 opls_901 184 MF N22 5504 -0.299729 14.0067
4920 opls_157 184 MF C2 5505 0.024672 12.011
4921 opls_156 184 MF H021 5508 0.0 1.008
4922 opls_156 184 MF H022 5509 0.0 1.008
4923 opls_910 184 MF H31 5510 0.0 1.008
4924 A 184 MF A3 5511 0.0 72.06679999999997
4925 opls_902 184 MF N13 5512 -0.407483 14.0067
4926 opls_145 184 MF C13 5513 0.682492 12.011
4927 opls_901 184 MF N23 5514 -0.299758 14.0067
4928 opls_157 184 MF C3 5515 0.024689 12.011
4929 opls_154 184 MF O3 5516 0.0 15.9994
4930 opls_156 184 MF H031 5518 0.0 1.008
4931 opls_156 184 MF H032 5519 0.0 1.008
4932 opls_910 184 MF H11 5520 0.0 1.008
4933 A 185 MF A1 5521 0.0 72.06679999999997
4934 opls_902 185 MF N11 5522 -0.407377 14.0067
4935 opls_145 185 MF C11 5523 0.682493 12.011
4936 opls_901 185 MF N21 5524 -0.299731 14.0067
4937 opls_157 185 MF C1 5525 0.024669 12.011
4938 opls_154 185 MF O1 5526 0.0 15.9994
4939 opls_156 185 MF H011 5528 0.0 1.008
4940 opls_156 185 MF H012 5529 0.0 1.008
4941 opls_910 185 MF H21 5530 0.0 1.008
4942 A 185 MF A2 5531 0.0 72.06679999999997
4943 opls_902 185 MF N12 5532 -0.407374 14.0067
4944 opls_145 185 MF C12 5533 0.682437 12.011
4945 opls_901 185 MF N22 5534 -0.299729 14.0067
4946 opls_157 185 MF C2 5535 0.024672 12.011
4947 opls_154 185 MF O2 5536 0.0 15.9994
4948 opls_155 185 MF H02 5537 0.0 1.008
4949 opls_156 185 MF H021 5538 0.0 1.008
4950 opls_156 185 MF H022 5539 0.0 1.008
4951 opls_910 185 MF H31 5540 0.0 1.008
4952 A 185 MF A3 5541 0.0 72.06679999999997
4953 opls_902 185 MF N13 5542 -0.407483 14.0067
4954 opls_145 185 MF C13 5543 0.682492 12.011
4955 opls_901 185 MF N23 5544 -0.299758 14.0067
4956 opls_157 185 MF C3 5545 0.024689 12.011
4957 opls_156 185 MF H031 5548 0.0 1.008
4958 opls_156 185 MF H032 5549 0.0 1.008
4959 opls_910 185 MF H11 5550 0.0 1.008
4960 A 186 MF A1 5551 0.0 72.06679999999997
4961 opls_902 186 MF N11 5552 -0.407377 14.0067
4962 opls_145 186 MF C11 5553 0.682493 12.011
4963 opls_901 186 MF N21 5554 -0.299731 14.0067
4964 opls_157 186 MF C1 5555 0.024669 12.011
4965 opls_156 186 MF H011 5558 0.0 1.008
4966 opls_156 186 MF H012 5559 0.0 1.008
4967 opls_910 186 MF H21 5560 0.0 1.008
4968 A 186 MF A2 5561 0.0 72.06679999999997
4969 opls_902 186 MF N12 5562 -0.407374 14.0067
4970 opls_145 186 MF C12 5563 0.682437 12.011
4971 opls_901 186 MF N22 5564 -0.299729 14.0067
4972 opls_157 186 MF C2 5565 0.024672 12.011
4973 opls_156 186 MF H021 5568 0.0 1.008
4974 opls_156 186 MF H022 5569 0.0 1.008
4975 opls_910 186 MF H31 5570 0.0 1.008
4976 A 186 MF A3 5571 0.0 72.06679999999997
4977 opls_902 186 MF N13 5572 -0.407483 14.0067
4978 opls_145 186 MF C13 5573 0.682492 12.011
4979 opls_901 186 MF N23 5574 -0.299758 14.0067
4980 opls_157 186 MF C3 5575 0.024689 12.011
4981 opls_154 186 MF O3 5576 0.0 15.9994
4982 opls_156 186 MF H031 5578 0.0 1.008
4983 opls_156 186 MF H032 5579 0.0 1.008
4984 opls_910 186 MF H11 5580 0.0 1.008
4985 A 187 MF A1 5581 0.0 72.06679999999997
4986 opls_902 187 MF N11 5582 -0.407377 14.0067
4987 opls_145 187 MF C11 5583 0.682493 12.011
4988 opls_901 187 MF N21 5584 -0.299731 14.0067
4989 opls_157 187 MF C1 5585 0.024669 12.011
4990 opls_154 187 MF O1 5586 0.0 15.9994
4991 opls_156 187 MF H011 5588 0.0 1.008
4992 opls_156 187 MF H012 5589 0.0 1.008
4993 opls_910 187 MF H21 5590 0.0 1.008
4994 A 187 MF A2 5591 0.0 72.06679999999997
4995 opls_902 187 MF N12 5592 -0.407374 14.0067
4996 opls_145 187 MF C12 5593 0.682437 12.011
4997 opls_901 187 MF N22 5594 -0.299729 14.0067
4998 opls_157 187 MF C2 5595 0.024672 12.011
4999 opls_154 187 MF O2 5596 0.0 15.9994
5000 opls_156 187 MF H021 5598 0.0 1.008
5001 opls_156 187 MF H022 5599 0.0 1.008
5002 opls_910 187 MF H31 5600 0.0 1.008
5003 A 187 MF A3 5601 0.0 72.06679999999997
5004 opls_902 187 MF N13 5602 -0.407483 14.0067
5005 opls_145 187 MF C13 5603 0.682492 12.011
5006 opls_901 187 MF N23 5604 -0.299758 14.0067
5007 opls_157 187 MF C3 5605 0.024689 12.011
5008 opls_154 187 MF O3 5606 0.0 15.9994
5009 opls_155 187 MF H03 5607 0.0 1.008
5010 opls_156 187 MF H031 5608 0.0 1.008
5011 opls_156 187 MF H032 5609 0.0 1.008
5012 opls_910 187 MF H11 5610 0.0 1.008
5013 A 188 MF A1 5611 0.0 72.06679999999997
5014 opls_902 188 MF N11 5612 -0.407377 14.0067
5015 opls_145 188 MF C11 5613 0.682493 12.011
5016 opls_901 188 MF N21 5614 -0.299731 14.0067
5017 opls_157 188 MF C1 5615 0.024669 12.011
5018 opls_154 188 MF O1 5616 0.0 15.9994
5019 opls_156 188 MF H011 5618 0.0 1.008
5020 opls_156 188 MF H012 5619 0.0 1.008
5021 opls_910 188 MF H21 5620 0.0 1.008
5022 A 188 MF A2 5621 0.0 72.06679999999997
5023 opls_902 188 MF N12 5622 -0.407374 14.0067
5024 opls_145 188 MF C12 5623 0.682437 12.011
5025 opls_901 188 MF N22 5624 -0.299729 14.0067
5026 opls_157 188 MF C2 5625 0.024672 12.011
5027 opls_156 188 MF H021 5628 0.0 1.008
5028 opls_156 188 MF H022 5629 0.0 1.008
5029 opls_910 188 MF H31 5630 0.0 1.008
5030 A 188 MF A3 5631 0.0 72.06679999999997
5031 opls_902 188 MF N13 5632 -0.407483 14.0067
5032 opls_145 188 MF C13 5633 0.682492 12.011
5033 opls_901 188 MF N23 5634 -0.299758 14.0067
5034 opls_157 188 MF C3 5635 0.024689 12.011
5035 opls_154 188 MF O3 5636 0.0 15.9994
5036 opls_156 188 MF H031 5638 0.0 1.008
5037 opls_156 188 MF H032 5639 0.0 1.008
5038 opls_910 188 MF H11 5640 0.0 1.008
5039 A 189 MF A1 5641 0.0 72.06679999999997
5040 opls_902 189 MF N11 5642 -0.407377 14.0067
5041 opls_145 189 MF C11 5643 0.682493 12.011
5042 opls_901 189 MF N21 5644 -0.299731 14.0067
5043 opls_157 189 MF C1 5645 0.024669 12.011
5044 opls_156 189 MF H011 5648 0.0 1.008
5045 opls_156 189 MF H012 5649 0.0 1.008
5046 opls_910 189 MF H21 5650 0.0 1.008
5047 A 189 MF A2 5651 0.0 72.06679999999997
5048 opls_902 189 MF N12 5652 -0.407374 14.0067
5049 opls_145 189 MF C12 5653 0.682437 12.011
5050 opls_901 189 MF N22 5654 -0.299729 14.0067
5051 opls_157 189 MF C2 5655 0.024672 12.011
5052 opls_154 189 MF O2 5656 0.0 15.9994
5053 opls_155 189 MF H02 5657 0.0 1.008
5054 opls_156 189 MF H021 5658 0.0 1.008
5055 opls_156 189 MF H022 5659 0.0 1.008
5056 opls_910 189 MF H31 5660 0.0 1.008
5057 A 189 MF A3 5661 0.0 72.06679999999997
5058 opls_902 189 MF N13 5662 -0.407483 14.0067
5059 opls_145 189 MF C13 5663 0.682492 12.011
5060 opls_901 189 MF N23 5664 -0.299758 14.0067
5061 opls_157 189 MF C3 5665 0.024689 12.011
5062 opls_156 189 MF H031 5668 0.0 1.008
5063 opls_156 189 MF H032 5669 0.0 1.008
5064 opls_910 189 MF H11 5670 0.0 1.008
5065 A 190 MF A1 5671 0.0 72.06679999999997
5066 opls_902 190 MF N11 5672 -0.407377 14.0067
5067 opls_145 190 MF C11 5673 0.682493 12.011
5068 opls_901 190 MF N21 5674 -0.299731 14.0067
5069 opls_157 190 MF C1 5675 0.024669 12.011
5070 opls_154 190 MF O1 5676 0.0 15.9994
5071 opls_156 190 MF H011 5678 0.0 1.008
5072 opls_156 190 MF H012 5679 0.0 1.008
5073 opls_910 190 MF H21 5680 0.0 1.008
5074 A 190 MF A2 5681 0.0 72.06679999999997
5075 opls_902 190 MF N12 5682 -0.407374 14.0067
5076 opls_145 190 MF C12 5683 0.682437 12.011
5077 opls_901 190 MF N22 5684 -0.299729 14.0067
5078 opls_157 190 MF C2 5685 0.024672 12.011
5079 opls_154 190 MF O2 5686 0.0 15.9994
5080 opls_156 190 MF H021 5688 0.0 1.008
5081 opls_156 190 MF H022 5689 0.0 1.008
5082 opls_910 190 MF H31 5690 0.0 1.008
5083 A 190 MF A3 5691 0.0 72.06679999999997
5084 opls_902 190 MF N13 5692 -0.407483 14.0067
5085 opls_145 190 MF C13 5693 0.682492 12.011
5086 opls_901 190 MF N23 5694 -0.299758 14.0067
5087 opls_157 190 MF C3 5695 0.024689 12.011
5088 opls_154 190 MF O3 5696 0.0 15.9994
5089 opls_156 190 MF H031 5698 0.0 1.008
5090 opls_156 190 MF H032 5699 0.0 1.008
5091 opls_910 190 MF H11 5700 0.0 1.008
5092 A 191 MF A1 5701 0.0 72.06679999999997
5093 opls_902 191 MF N11 5702 -0.407377 14.0067
5094 opls_145 191 MF C11 5703 0.682493 12.011
5095 opls_901 191 MF N21 5704 -0.299731 14.0067
5096 opls_157 191 MF C1 5705 0.024669 12.011
5097 opls_154 191 MF O1 5706 0.0 15.9994
5098 opls_155 191 MF H01 5707 0.0 1.008
5099 opls_156 191 MF H011 5708 0.0 1.008
5100 opls_156 191 MF H012 5709 0.0 1.008
5101 opls_910 191 MF H21 5710 0.0 1.008
5102 A 191 MF A2 5711 0.0 72.06679999999997
5103 opls_902 191 MF N12 5712 -0.407374 14.0067
5104 opls_145 191 MF C12 5713 0.682437 12.011
5105 opls_901 191 MF N22 5714 -0.299729 14.0067
5106 opls_157 191 MF C2 5715 0.024672 12.011
5107 opls_154 191 MF O2 5716 0.0 15.9994
5108 opls_156 191 MF H021 5718 0.0 1.008
5109 opls_156 191 MF H022 5719 0.0 1.008
5110 opls_910 191 MF H31 5720 0.0 1.008
5111 A 191 MF A3 5721 0.0 72.06679999999997
5112 opls_902 191 MF N13 5722 -0.407483 14.0067
5113 opls_145 191 MF C13 5723 0.682492 12.011
5114 opls_901 191 MF N23 5724 -0.299758 14.0067
5115 opls_157 191 MF C3 5725 0.024689 12.011
5116 opls_154 191 MF O3 5726 0.0 15.9994
5117 opls_155 191 MF H03 5727 0.0 1.008
5118 opls_156 191 MF H031 5728 0.0 1.008
5119 opls_156 191 MF H032 5729 0.0 1.008
5120 opls_910 191 MF H11 5730 0.0 1.008
5121 A 192 MF A1 5731 0.0 72.06679999999997
5122 opls_902 192 MF N11 5732 -0.407377 14.0067
5123 opls_145 192 MF C11 5733 0.682493 12.011
5124 opls_901 192 MF N21 5734 -0.299731 14.0067
5125 opls_157 192 MF C1 5735 0.024669 12.011
5126 opls_154 192 MF O1 5736 0.0 15.9994
5127 opls_155 192 MF H01 5737 0.0 1.008
5128 opls_156 192 MF H011 5738 0.0 1.008
5129 opls_156 192 MF H012 5739 0.0 1.008
5130 opls_910 192 MF H21 5740 0.0 1.008
5131 A 192 MF A2 5741 0.0 72.06679999999997
5132 opls_902 192 MF N12 5742 -0.407374 14.0067
5133 opls_145 192 MF C12 5743 0.682437 12.011
5134 opls_901 192 MF N22 5744 -0.299729 14.0067
5135 opls_157 192 MF C2 5745 0.024672 12.011
5136 opls_154 192 MF O2 5746 0.0 15.9994
5137 opls_156 192 MF H021 5748 0.0 1.008
5138 opls_156 192 MF H022 5749 0.0 1.008
5139 opls_910 192 MF H31 5750 0.0 1.008
5140 A 192 MF A3 5751 0.0 72.06679999999997
5141 opls_902 192 MF N13 5752 -0.407483 14.0067
5142 opls_145 192 MF C13 5753 0.682492 12.011
5143 opls_901 192 MF N23 5754 -0.299758 14.0067
5144 opls_157 192 MF C3 5755 0.024689 12.011
5145 opls_154 192 MF O3 5756 0.0 15.9994
5146 opls_156 192 MF H031 5758 0.0 1.008
5147 opls_156 192 MF H032 5759 0.0 1.008
5148 opls_910 192 MF H11 5760 0.0 1.008
5149 A 193 MF A1 5761 0.0 72.06679999999997
5150 opls_902 193 MF N11 5762 -0.407377 14.0067
5151 opls_145 193 MF C11 5763 0.682493 12.011
5152 opls_901 193 MF N21 5764 -0.299731 14.0067
5153 opls_157 193 MF C1 5765 0.024669 12.011
5154 opls_156 193 MF H011 5768 0.0 1.008
5155 opls_156 193 MF H012 5769 0.0 1.008
5156 opls_910 193 MF H21 5770 0.0 1.008
5157 A 193 MF A2 5771 0.0 72.06679999999997
5158 opls_902 193 MF N12 5772 -0.407374 14.0067
5159 opls_145 193 MF C12 5773 0.682437 12.011
5160 opls_901 193 MF N22 5774 -0.299729 14.0067
5161 opls_157 193 MF C2 5775 0.024672 12.011
5162 opls_154 193 MF O2 5776 0.0 15.9994
5163 opls_156 193 MF H021 5778 0.0 1.008
5164 opls_156 193 MF H022 5779 0.0 1.008
5165 opls_910 193 MF H31 5780 0.0 1.008
5166 A 193 MF A3 5781 0.0 72.06679999999997
5167 opls_902 193 MF N13 5782 -0.407483 14.0067
5168 opls_145 193 MF C13 5783 0.682492 12.011
5169 opls_901 193 MF N23 5784 -0.299758 14.0067
5170 opls_157 193 MF C3 5785 0.024689 12.011
5171 opls_154 193 MF O3 5786 0.0 15.9994
5172 opls_156 193 MF H031 5788 0.0 1.008
5173 opls_156 193 MF H032 5789 0.0 1.008
5174 opls_910 193 MF H11 5790 0.0 1.008
5175 A 194 MF A1 5791 0.0 72.06679999999997
5176 opls_902 194 MF N11 5792 -0.407377 14.0067
5177 opls_145 194 MF C11 5793 0.682493 12.011
5178 opls_901 194 MF N21 5794 -0.299731 14.0067
5179 opls_157 194 MF C1 5795 0.024669 12.011
5180 opls_156 194 MF H011 5798 0.0 1.008
5181 opls_156 194 MF H012 5799 0.0 1.008
5182 opls_910 194 MF H21 5800 0.0 1.008
5183 A 194 MF A2 5801 0.0 72.06679999999997
5184 opls_902 194 MF N12 5802 -0.407374 14.0067
5185 opls_145 194 MF C12 5803 0.682437 12.011
5186 opls_901 194 MF N22 5804 -0.299729 14.0067
5187 opls_157 194 MF C2 5805 0.024672 12.011
5188 opls_154 194 MF O2 5806 0.0 15.9994
5189 opls_156 194 MF H021 5808 0.0 1.008
5190 opls_156 194 MF H022 5809 0.0 1.008
5191 opls_910 194 MF H31 5810 0.0 1.008
5192 A 194 MF A3 5811 0.0 72.06679999999997
5193 opls_902 194 MF N13 5812 -0.407483 14.0067
5194 opls_145 194 MF C13 5813 0.682492 12.011
5195 opls_901 194 MF N23 5814 -0.299758 14.0067
5196 opls_157 194 MF C3 5815 0.024689 12.011
5197 opls_154 194 MF O3 5816 0.0 15.9994
5198 opls_156 194 MF H031 5818 0.0 1.008
5199 opls_156 194 MF H032 5819 0.0 1.008
5200 opls_910 194 MF H11 5820 0.0 1.008
5201 A 195 MF A1 5821 0.0 72.06679999999997
5202 opls_902 195 MF N11 5822 -0.407377 14.0067
5203 opls_145 195 MF C11 5823 0.682493 12.011
5204 opls_901 195 MF N21 5824 -0.299731 14.0067
5205 opls_157 195 MF C1 5825 0.024669 12.011
5206 opls_154 195 MF O1 5826 0.0 15.9994
5207 opls_156 195 MF H011 5828 0.0 1.008
5208 opls_156 195 MF H012 5829 0.0 1.008
5209 opls_910 195 MF H21 5830 0.0 1.008
5210 A 195 MF A2 5831 0.0 72.06679999999997
5211 opls_902 195 MF N12 5832 -0.407374 14.0067
5212 opls_145 195 MF C12 5833 0.682437 12.011
5213 opls_901 195 MF N22 5834 -0.299729 14.0067
5214 opls_157 195 MF C2 5835 0.024672 12.011
5215 opls_154 195 MF O2 5836 0.0 15.9994
5216 opls_155 195 MF H02 5837 0.0 1.008
5217 opls_156 195 MF H021 5838 0.0 1.008
5218 opls_156 195 MF H022 5839 0.0 1.008
5219 opls_910 195 MF H31 5840 0.0 1.008
5220 A 195 MF A3 5841 0.0 72.06679999999997
5221 opls_902 195 MF N13 5842 -0.407483 14.0067
5222 opls_145 195 MF C13 5843 0.682492 12.011
5223 opls_901 195 MF N23 5844 -0.299758 14.0067
5224 opls_157 195 MF C3 5845 0.024689 12.011
5225 opls_154 195 MF O3 5846 0.0 15.9994
5226 opls_156 195 MF H031 5848 0.0 1.008
5227 opls_156 195 MF H032 5849 0.0 1.008
5228 opls_910 195 MF H11 5850 0.0 1.008
5229 A 196 MF A1 5851 0.0 72.06679999999997
5230 opls_902 196 MF N11 5852 -0.407377 14.0067
5231 opls_145 196 MF C11 5853 0.682493 12.011
5232 opls_901 196 MF N21 5854 -0.299731 14.0067
5233 opls_157 196 MF C1 5855 0.024669 12.011
5234 opls_156 196 MF H011 5858 0.0 1.008
5235 opls_156 196 MF H012 5859 0.0 1.008
5236 opls_910 196 MF H21 5860 0.0 1.008
5237 A 196 MF A2 5861 0.0 72.06679999999997
5238 opls_902 196 MF N12 5862 -0.407374 14.0067
5239 opls_145 196 MF C12 5863 0.682437 12.011
5240 opls_901 196 MF N22 5864 -0.299729 14.0067
5241 opls_157 196 MF C2 5865 0.024672 12.011
5242 opls_154 196 MF O2 5866 0.0 15.9994
5243 opls_156 196 MF H021 5868 0.0 1.008
5244 opls_156 196 MF H022 5869 0.0 1.008
5245 opls_910 196 MF H31 5870 0.0 1.008
5246 A 196 MF A3 5871 0.0 72.06679999999997
5247 opls_902 196 MF N13 5872 -0.407483 14.0067
5248 opls_145 196 MF C13 5873 0.682492 12.011
5249 opls_901 196 MF N23 5874 -0.299758 14.0067
5250 opls_157 196 MF C3 5875 0.024689 12.011
5251 opls_156 196 MF H031 5878 0.0 1.008
5252 opls_156 196 MF H032 5879 0.0 1.008
5253 opls_910 196 MF H11 5880 0.0 1.008
5254 A 197 MF A1 5881 0.0 72.06679999999997
5255 opls_902 197 MF N11 5882 -0.407377 14.0067
5256 opls_145 197 MF C11 5883 0.682493 12.011
5257 opls_901 197 MF N21 5884 -0.299731 14.0067
5258 opls_157 197 MF C1 5885 0.024669 12.011
5259 opls_154 197 MF O1 5886 0.0 15.9994
5260 opls_155 197 MF H01 5887 0.0 1.008
5261 opls_156 197 MF H011 5888 0.0 1.008
5262 opls_156 197 MF H012 5889 0.0 1.008
5263 opls_910 197 MF H21 5890 0.0 1.008
5264 A 197 MF A2 5891 0.0 72.06679999999997
5265 opls_902 197 MF N12 5892 -0.407374 14.0067
5266 opls_145 197 MF C12 5893 0.682437 12.011
5267 opls_901 197 MF N22 5894 -0.299729 14.0067
5268 opls_157 197 MF C2 5895 0.024672 12.011
5269 opls_154 197 MF O2 5896 0.0 15.9994
5270 opls_156 197 MF H021 5898 0.0 1.008
5271 opls_156 197 MF H022 5899 0.0 1.008
5272 opls_910 197 MF H31 5900 0.0 1.008
5273 A 197 MF A3 5901 0.0 72.06679999999997
5274 opls_902 197 MF N13 5902 -0.407483 14.0067
5275 opls_145 197 MF C13 5903 0.682492 12.011
5276 opls_901 197 MF N23 5904 -0.299758 14.0067
5277 opls_157 197 MF C3 5905 0.024689 12.011
5278 opls_154 197 MF O3 5906 0.0 15.9994
5279 opls_156 197 MF H031 5908 0.0 1.008
5280 opls_156 197 MF H032 5909 0.0 1.008
5281 opls_910 197 MF H11 5910 0.0 1.008
5282 A 198 MF A1 5911 0.0 72.06679999999997
5283 opls_902 198 MF N11 5912 -0.407377 14.0067
5284 opls_145 198 MF C11 5913 0.682493 12.011
5285 opls_901 198 MF N21 5914 -0.299731 14.0067
5286 opls_157 198 MF C1 5915 0.024669 12.011
5287 opls_156 198 MF H011 5918 0.0 1.008
5288 opls_156 198 MF H012 5919 0.0 1.008
5289 opls_910 198 MF H21 5920 0.0 1.008
5290 A 198 MF A2 5921 0.0 72.06679999999997
5291 opls_902 198 MF N12 5922 -0.407374 14.0067
5292 opls_145 198 MF C12 5923 0.682437 12.011
5293 opls_901 198 MF N22 5924 -0.299729 14.0067
5294 opls_157 198 MF C2 5925 0.024672 12.011
5295 opls_154 198 MF O2 5926 0.0 15.9994
5296 opls_156 198 MF H021 5928 0.0 1.008
5297 opls_156 198 MF H022 5929 0.0 1.008
5298 opls_910 198 MF H31 5930 0.0 1.008
5299 A 198 MF A3 5931 0.0 72.06679999999997
5300 opls_902 198 MF N13 5932 -0.407483 14.0067
5301 opls_145 198 MF C13 5933 0.682492 12.011
5302 opls_901 198 MF N23 5934 -0.299758 14.0067
5303 opls_157 198 MF C3 5935 0.024689 12.011
5304 opls_156 198 MF H031 5938 0.0 1.008
5305 opls_156 198 MF H032 5939 0.0 1.008
5306 opls_910 198 MF H11 5940 0.0 1.008
5307 A 199 MF A1 5941 0.0 72.06679999999997
5308 opls_902 199 MF N11 5942 -0.407377 14.0067
5309 opls_145 199 MF C11 5943 0.682493 12.011
5310 opls_901 199 MF N21 5944 -0.299731 14.0067
5311 opls_157 199 MF C1 5945 0.024669 12.011
5312 opls_156 199 MF H011 5948 0.0 1.008
5313 opls_156 199 MF H012 5949 0.0 1.008
5314 opls_910 199 MF H21 5950 0.0 1.008
5315 A 199 MF A2 5951 0.0 72.06679999999997
5316 opls_902 199 MF N12 5952 -0.407374 14.0067
5317 opls_145 199 MF C12 5953 0.682437 12.011
5318 opls_901 199 MF N22 5954 -0.299729 14.0067
5319 opls_157 199 MF C2 5955 0.024672 12.011
5320 opls_154 199 MF O2 5956 0.0 15.9994
5321 opls_156 199 MF H021 5958 0.0 1.008
5322 opls_156 199 MF H022 5959 0.0 1.008
5323 opls_910 199 MF H31 5960 0.0 1.008
5324 A 199 MF A3 5961 0.0 72.06679999999997
5325 opls_902 199 MF N13 5962 -0.407483 14.0067
5326 opls_145 199 MF C13 5963 0.682492 12.011
5327 opls_901 199 MF N23 5964 -0.299758 14.0067
5328 opls_157 199 MF C3 5965 0.024689 12.011
5329 opls_154 199 MF O3 5966 0.0 15.9994
5330 opls_155 199 MF H03 5967 0.0 1.008
5331 opls_156 199 MF H031 5968 0.0 1.008
5332 opls_156 199 MF H032 5969 0.0 1.008
5333 opls_910 199 MF H11 5970 0.0 1.008
5334 A 200 MF A1 5971 0.0 72.06679999999997
5335 opls_902 200 MF N11 5972 -0.407377 14.0067
5336 opls_145 200 MF C11 5973 0.682493 12.011
5337 opls_901 200 MF N21 5974 -0.299731 14.0067
5338 opls_157 200 MF C1 5975 0.024669 12.011
5339 opls_156 200 MF H011 5978 0.0 1.008
5340 opls_156 200 MF H012 5979 0.0 1.008
5341 opls_910 200 MF H21 5980 0.0 1.008
5342 A 200 MF A2 5981 0.0 72.06679999999997
5343 opls_902 200 MF N12 5982 -0.407374 14.0067
5344 opls_145 200 MF C12 5983 0.682437 12.011
5345 opls_901 200 MF N22 5984 -0.299729 14.0067
5346 opls_157 200 MF C2 5985 0.024672 12.011
5347 opls_156 200 MF H021 5988 0.0 1.008
5348 opls_156 200 MF H022 5989 0.0 1.008
5349 opls_910 200 MF H31 5990 0.0 1.008
5350 A 200 MF A3 5991 0.0 72.06679999999997
5351 opls_902 200 MF N13 5992 -0.407483 14.0067
5352 opls_145 200 MF C13 5993 0.682492 12.011
5353 opls_901 200 MF N23 5994 -0.299758 14.0067
5354 opls_157 200 MF C3 5995 0.024689 12.011
5355 opls_156 200 MF H031 5998 0.0 1.008
5356 opls_156 200 MF H032 5999 0.0 1.008
5357 opls_910 200 MF H11 6000 0.0 1.008
5358 A 201 MF A1 6001 0.0 72.06679999999997
5359 opls_902 201 MF N11 6002 -0.407377 14.0067
5360 opls_145 201 MF C11 6003 0.682493 12.011
5361 opls_901 201 MF N21 6004 -0.299731 14.0067
5362 opls_157 201 MF C1 6005 0.024669 12.011
5363 opls_154 201 MF O1 6006 0.0 15.9994
5364 opls_156 201 MF H011 6008 0.0 1.008
5365 opls_156 201 MF H012 6009 0.0 1.008
5366 opls_910 201 MF H21 6010 0.0 1.008
5367 A 201 MF A2 6011 0.0 72.06679999999997
5368 opls_902 201 MF N12 6012 -0.407374 14.0067
5369 opls_145 201 MF C12 6013 0.682437 12.011
5370 opls_901 201 MF N22 6014 -0.299729 14.0067
5371 opls_157 201 MF C2 6015 0.024672 12.011
5372 opls_156 201 MF H021 6018 0.0 1.008
5373 opls_156 201 MF H022 6019 0.0 1.008
5374 opls_910 201 MF H31 6020 0.0 1.008
5375 A 201 MF A3 6021 0.0 72.06679999999997
5376 opls_902 201 MF N13 6022 -0.407483 14.0067
5377 opls_145 201 MF C13 6023 0.682492 12.011
5378 opls_901 201 MF N23 6024 -0.299758 14.0067
5379 opls_157 201 MF C3 6025 0.024689 12.011
5380 opls_154 201 MF O3 6026 0.0 15.9994
5381 opls_155 201 MF H03 6027 0.0 1.008
5382 opls_156 201 MF H031 6028 0.0 1.008
5383 opls_156 201 MF H032 6029 0.0 1.008
5384 opls_910 201 MF H11 6030 0.0 1.008
5385 A 202 MF A1 6031 0.0 72.06679999999997
5386 opls_902 202 MF N11 6032 -0.407377 14.0067
5387 opls_145 202 MF C11 6033 0.682493 12.011
5388 opls_901 202 MF N21 6034 -0.299731 14.0067
5389 opls_157 202 MF C1 6035 0.024669 12.011
5390 opls_154 202 MF O1 6036 0.0 15.9994
5391 opls_155 202 MF H01 6037 0.0 1.008
5392 opls_156 202 MF H011 6038 0.0 1.008
5393 opls_156 202 MF H012 6039 0.0 1.008
5394 opls_910 202 MF H21 6040 0.0 1.008
5395 A 202 MF A2 6041 0.0 72.06679999999997
5396 opls_902 202 MF N12 6042 -0.407374 14.0067
5397 opls_145 202 MF C12 6043 0.682437 12.011
5398 opls_901 202 MF N22 6044 -0.299729 14.0067
5399 opls_157 202 MF C2 6045 0.024672 12.011
5400 opls_156 202 MF H021 6048 0.0 1.008
5401 opls_156 202 MF H022 6049 0.0 1.008
5402 opls_910 202 MF H31 6050 0.0 1.008
5403 A 202 MF A3 6051 0.0 72.06679999999997
5404 opls_902 202 MF N13 6052 -0.407483 14.0067
5405 opls_145 202 MF C13 6053 0.682492 12.011
5406 opls_901 202 MF N23 6054 -0.299758 14.0067
5407 opls_157 202 MF C3 6055 0.024689 12.011
5408 opls_156 202 MF H031 6058 0.0 1.008
5409 opls_156 202 MF H032 6059 0.0 1.008
5410 opls_910 202 MF H11 6060 0.0 1.008
5411 A 203 MF A1 6061 0.0 72.06679999999997
5412 opls_902 203 MF N11 6062 -0.407377 14.0067
5413 opls_145 203 MF C11 6063 0.682493 12.011
5414 opls_901 203 MF N21 6064 -0.299731 14.0067
5415 opls_157 203 MF C1 6065 0.024669 12.011
5416 opls_156 203 MF H011 6068 0.0 1.008
5417 opls_156 203 MF H012 6069 0.0 1.008
5418 opls_910 203 MF H21 6070 0.0 1.008
5419 A 203 MF A2 6071 0.0 72.06679999999997
5420 opls_902 203 MF N12 6072 -0.407374 14.0067
5421 opls_145 203 MF C12 6073 0.682437 12.011
5422 opls_901 203 MF N22 6074 -0.299729 14.0067
5423 opls_157 203 MF C2 6075 0.024672 12.011
5424 opls_156 203 MF H021 6078 0.0 1.008
5425 opls_156 203 MF H022 6079 0.0 1.008
5426 opls_910 203 MF H31 6080 0.0 1.008
5427 A 203 MF A3 6081 0.0 72.06679999999997
5428 opls_902 203 MF N13 6082 -0.407483 14.0067
5429 opls_145 203 MF C13 6083 0.682492 12.011
5430 opls_901 203 MF N23 6084 -0.299758 14.0067
5431 opls_157 203 MF C3 6085 0.024689 12.011
5432 opls_154 203 MF O3 6086 0.0 15.9994
5433 opls_156 203 MF H031 6088 0.0 1.008
5434 opls_156 203 MF H032 6089 0.0 1.008
5435 opls_910 203 MF H11 6090 0.0 1.008
5436 A 204 MF A1 6091 0.0 72.06679999999997
5437 opls_902 204 MF N11 6092 -0.407377 14.0067
5438 opls_145 204 MF C11 6093 0.682493 12.011
5439 opls_901 204 MF N21 6094 -0.299731 14.0067
5440 opls_157 204 MF C1 6095 0.024669 12.011
5441 opls_154 204 MF O1 6096 0.0 15.9994
5442 opls_156 204 MF H011 6098 0.0 1.008
5443 opls_156 204 MF H012 6099 0.0 1.008
5444 opls_910 204 MF H21 6100 0.0 1.008
5445 A 204 MF A2 6101 0.0 72.06679999999997
5446 opls_902 204 MF N12 6102 -0.407374 14.0067
5447 opls_145 204 MF C12 6103 0.682437 12.011
5448 opls_901 204 MF N22 6104 -0.299729 14.0067
5449 opls_157 204 MF C2 6105 0.024672 12.011
5450 opls_154 204 MF O2 6106 0.0 15.9994
5451 opls_156 204 MF H021 6108 0.0 1.008
5452 opls_156 204 MF H022 6109 0.0 1.008
5453 opls_910 204 MF H31 6110 0.0 1.008
5454 A 204 MF A3 6111 0.0 72.06679999999997
5455 opls_902 204 MF N13 6112 -0.407483 14.0067
5456 opls_145 204 MF C13 6113 0.682492 12.011
5457 opls_901 204 MF N23 6114 -0.299758 14.0067
5458 opls_157 204 MF C3 6115 0.024689 12.011
5459 opls_154 204 MF O3 6116 0.0 15.9994
5460 opls_156 204 MF H031 6118 0.0 1.008
5461 opls_156 204 MF H032 6119 0.0 1.008
5462 opls_910 204 MF H11 6120 0.0 1.008
5463 A 205 MF A1 6121 0.0 72.06679999999997
5464 opls_902 205 MF N11 6122 -0.407377 14.0067
5465 opls_145 205 MF C11 6123 0.682493 12.011
5466 opls_901 205 MF N21 6124 -0.299731 14.0067
5467 opls_157 205 MF C1 6125 0.024669 12.011
5468 opls_156 205 MF H011 6128 0.0 1.008
5469 opls_156 205 MF H012 6129 0.0 1.008
5470 opls_910 205 MF H21 6130 0.0 1.008
5471 A 205 MF A2 6131 0.0 72.06679999999997
5472 opls_902 205 MF N12 6132 -0.407374 14.0067
5473 opls_145 205 MF C12 6133 0.682437 12.011
5474 opls_901 205 MF N22 6134 -0.299729 14.0067
5475 opls_157 205 MF C2 6135 0.024672 12.011
5476 opls_154 205 MF O2 6136 0.0 15.9994
5477 opls_156 205 MF H021 6138 0.0 1.008
5478 opls_156 205 MF H022 6139 0.0 1.008
5479 opls_910 205 MF H31 6140 0.0 1.008
5480 A 205 MF A3 6141 0.0 72.06679999999997
5481 opls_902 205 MF N13 6142 -0.407483 14.0067
5482 opls_145 205 MF C13 6143 0.682492 12.011
5483 opls_901 205 MF N23 6144 -0.299758 14.0067
5484 opls_157 205 MF C3 6145 0.024689 12.011
5485 opls_154 205 MF O3 6146 0.0 15.9994
5486 opls_156 205 MF H031 6148 0.0 1.008
5487 opls_156 205 MF H032 6149 0.0 1.008
5488 opls_910 205 MF H11 6150 0.0 1.008
5489 A 206 MF A1 6151 0.0 72.06679999999997
5490 opls_902 206 MF N11 6152 -0.407377 14.0067
5491 opls_145 206 MF C11 6153 0.682493 12.011
5492 opls_901 206 MF N21 6154 -0.299731 14.0067
5493 opls_157 206 MF C1 6155 0.024669 12.011
5494 opls_156 206 MF H011 6158 0.0 1.008
5495 opls_156 206 MF H012 6159 0.0 1.008
5496 opls_910 206 MF H21 6160 0.0 1.008
5497 A 206 MF A2 6161 0.0 72.06679999999997
5498 opls_902 206 MF N12 6162 -0.407374 14.0067
5499 opls_145 206 MF C12 6163 0.682437 12.011
5500 opls_901 206 MF N22 6164 -0.299729 14.0067
5501 opls_157 206 MF C2 6165 0.024672 12.011
5502 opls_154 206 MF O2 6166 0.0 15.9994
5503 opls_155 206 MF H02 6167 0.0 1.008
5504 opls_156 206 MF H021 6168 0.0 1.008
5505 opls_156 206 MF H022 6169 0.0 1.008
5506 opls_910 206 MF H31 6170 0.0 1.008
5507 A 206 MF A3 6171 0.0 72.06679999999997
5508 opls_902 206 MF N13 6172 -0.407483 14.0067
5509 opls_145 206 MF C13 6173 0.682492 12.011
5510 opls_901 206 MF N23 6174 -0.299758 14.0067
5511 opls_157 206 MF C3 6175 0.024689 12.011
5512 opls_156 206 MF H031 6178 0.0 1.008
5513 opls_156 206 MF H032 6179 0.0 1.008
5514 opls_910 206 MF H11 6180 0.0 1.008
5515 A 207 MF A1 6181 0.0 72.06679999999997
5516 opls_902 207 MF N11 6182 -0.407377 14.0067
5517 opls_145 207 MF C11 6183 0.682493 12.011
5518 opls_901 207 MF N21 6184 -0.299731 14.0067
5519 opls_157 207 MF C1 6185 0.024669 12.011
5520 opls_156 207 MF H011 6188 0.0 1.008
5521 opls_156 207 MF H012 6189 0.0 1.008
5522 opls_910 207 MF H21 6190 0.0 1.008
5523 A 207 MF A2 6191 0.0 72.06679999999997
5524 opls_902 207 MF N12 6192 -0.407374 14.0067
5525 opls_145 207 MF C12 6193 0.682437 12.011
5526 opls_901 207 MF N22 6194 -0.299729 14.0067
5527 opls_157 207 MF C2 6195 0.024672 12.011
5528 opls_154 207 MF O2 6196 0.0 15.9994
5529 opls_156 207 MF H021 6198 0.0 1.008
5530 opls_156 207 MF H022 6199 0.0 1.008
5531 opls_910 207 MF H31 6200 0.0 1.008
5532 A 207 MF A3 6201 0.0 72.06679999999997
5533 opls_902 207 MF N13 6202 -0.407483 14.0067
5534 opls_145 207 MF C13 6203 0.682492 12.011
5535 opls_901 207 MF N23 6204 -0.299758 14.0067
5536 opls_157 207 MF C3 6205 0.024689 12.011
5537 opls_154 207 MF O3 6206 0.0 15.9994
5538 opls_156 207 MF H031 6208 0.0 1.008
5539 opls_156 207 MF H032 6209 0.0 1.008
5540 opls_910 207 MF H11 6210 0.0 1.008
5541 A 208 MF A1 6211 0.0 72.06679999999997
5542 opls_902 208 MF N11 6212 -0.407377 14.0067
5543 opls_145 208 MF C11 6213 0.682493 12.011
5544 opls_901 208 MF N21 6214 -0.299731 14.0067
5545 opls_157 208 MF C1 6215 0.024669 12.011
5546 opls_156 208 MF H011 6218 0.0 1.008
5547 opls_156 208 MF H012 6219 0.0 1.008
5548 opls_910 208 MF H21 6220 0.0 1.008
5549 A 208 MF A2 6221 0.0 72.06679999999997
5550 opls_902 208 MF N12 6222 -0.407374 14.0067
5551 opls_145 208 MF C12 6223 0.682437 12.011
5552 opls_901 208 MF N22 6224 -0.299729 14.0067
5553 opls_157 208 MF C2 6225 0.024672 12.011
5554 opls_154 208 MF O2 6226 0.0 15.9994
5555 opls_155 208 MF H02 6227 0.0 1.008
5556 opls_156 208 MF H021 6228 0.0 1.008
5557 opls_156 208 MF H022 6229 0.0 1.008
5558 opls_910 208 MF H31 6230 0.0 1.008
5559 A 208 MF A3 6231 0.0 72.06679999999997
5560 opls_902 208 MF N13 6232 -0.407483 14.0067
5561 opls_145 208 MF C13 6233 0.682492 12.011
5562 opls_901 208 MF N23 6234 -0.299758 14.0067
5563 opls_157 208 MF C3 6235 0.024689 12.011
5564 opls_154 208 MF O3 6236 0.0 15.9994
5565 opls_156 208 MF H031 6238 0.0 1.008
5566 opls_156 208 MF H032 6239 0.0 1.008
5567 opls_910 208 MF H11 6240 0.0 1.008
5568 A 209 MF A1 6241 0.0 72.06679999999997
5569 opls_902 209 MF N11 6242 -0.407377 14.0067
5570 opls_145 209 MF C11 6243 0.682493 12.011
5571 opls_901 209 MF N21 6244 -0.299731 14.0067
5572 opls_157 209 MF C1 6245 0.024669 12.011
5573 opls_154 209 MF O1 6246 0.0 15.9994
5574 opls_156 209 MF H011 6248 0.0 1.008
5575 opls_156 209 MF H012 6249 0.0 1.008
5576 opls_910 209 MF H21 6250 0.0 1.008
5577 A 209 MF A2 6251 0.0 72.06679999999997
5578 opls_902 209 MF N12 6252 -0.407374 14.0067
5579 opls_145 209 MF C12 6253 0.682437 12.011
5580 opls_901 209 MF N22 6254 -0.299729 14.0067
5581 opls_157 209 MF C2 6255 0.024672 12.011
5582 opls_156 209 MF H021 6258 0.0 1.008
5583 opls_156 209 MF H022 6259 0.0 1.008
5584 opls_910 209 MF H31 6260 0.0 1.008
5585 A 209 MF A3 6261 0.0 72.06679999999997
5586 opls_902 209 MF N13 6262 -0.407483 14.0067
5587 opls_145 209 MF C13 6263 0.682492 12.011
5588 opls_901 209 MF N23 6264 -0.299758 14.0067
5589 opls_157 209 MF C3 6265 0.024689 12.011
5590 opls_156 209 MF H031 6268 0.0 1.008
5591 opls_156 209 MF H032 6269 0.0 1.008
5592 opls_910 209 MF H11 6270 0.0 1.008
5593 A 210 MF A1 6271 0.0 72.06679999999997
5594 opls_902 210 MF N11 6272 -0.407377 14.0067
5595 opls_145 210 MF C11 6273 0.682493 12.011
5596 opls_901 210 MF N21 6274 -0.299731 14.0067
5597 opls_157 210 MF C1 6275 0.024669 12.011
5598 opls_156 210 MF H011 6278 0.0 1.008
5599 opls_156 210 MF H012 6279 0.0 1.008
5600 opls_910 210 MF H21 6280 0.0 1.008
5601 A 210 MF A2 6281 0.0 72.06679999999997
5602 opls_902 210 MF N12 6282 -0.407374 14.0067
5603 opls_145 210 MF C12 6283 0.682437 12.011
5604 opls_901 210 MF N22 6284 -0.299729 14.0067
5605 opls_157 210 MF C2 6285 0.024672 12.011
5606 opls_156 210 MF H021 6288 0.0 1.008
5607 opls_156 210 MF H022 6289 0.0 1.008
5608 opls_910 210 MF H31 6290 0.0 1.008
5609 A 210 MF A3 6291 0.0 72.06679999999997
5610 opls_902 210 MF N13 6292 -0.407483 14.0067
5611 opls_145 210 MF C13 6293 0.682492 12.011
5612 opls_901 210 MF N23 6294 -0.299758 14.0067
5613 opls_157 210 MF C3 6295 0.024689 12.011
5614 opls_156 210 MF H031 6298 0.0 1.008
5615 opls_156 210 MF H032 6299 0.0 1.008
5616 opls_910 210 MF H11 6300 0.0 1.008
5617 A 211 MF A1 6301 0.0 72.06679999999997
5618 opls_902 211 MF N11 6302 -0.407377 14.0067
5619 opls_145 211 MF C11 6303 0.682493 12.011
5620 opls_901 211 MF N21 6304 -0.299731 14.0067
5621 opls_157 211 MF C1 6305 0.024669 12.011
5622 opls_154 211 MF O1 6306 0.0 15.9994
5623 opls_156 211 MF H011 6308 0.0 1.008
5624 opls_156 211 MF H012 6309 0.0 1.008
5625 opls_910 211 MF H21 6310 0.0 1.008
5626 A 211 MF A2 6311 0.0 72.06679999999997
5627 opls_902 211 MF N12 6312 -0.407374 14.0067
5628 opls_145 211 MF C12 6313 0.682437 12.011
5629 opls_901 211 MF N22 6314 -0.299729 14.0067
5630 opls_157 211 MF C2 6315 0.024672 12.011
5631 opls_154 211 MF O2 6316 0.0 15.9994
5632 opls_156 211 MF H021 6318 0.0 1.008
5633 opls_156 211 MF H022 6319 0.0 1.008
5634 opls_910 211 MF H31 6320 0.0 1.008
5635 A 211 MF A3 6321 0.0 72.06679999999997
5636 opls_902 211 MF N13 6322 -0.407483 14.0067
5637 opls_145 211 MF C13 6323 0.682492 12.011
5638 opls_901 211 MF N23 6324 -0.299758 14.0067
5639 opls_157 211 MF C3 6325 0.024689 12.011
5640 opls_156 211 MF H031 6328 0.0 1.008
5641 opls_156 211 MF H032 6329 0.0 1.008
5642 opls_910 211 MF H11 6330 0.0 1.008
5643 A 212 MF A1 6331 0.0 72.06679999999997
5644 opls_902 212 MF N11 6332 -0.407377 14.0067
5645 opls_145 212 MF C11 6333 0.682493 12.011
5646 opls_901 212 MF N21 6334 -0.299731 14.0067
5647 opls_157 212 MF C1 6335 0.024669 12.011
5648 opls_154 212 MF O1 6336 0.0 15.9994
5649 opls_156 212 MF H011 6338 0.0 1.008
5650 opls_156 212 MF H012 6339 0.0 1.008
5651 opls_910 212 MF H21 6340 0.0 1.008
5652 A 212 MF A2 6341 0.0 72.06679999999997
5653 opls_902 212 MF N12 6342 -0.407374 14.0067
5654 opls_145 212 MF C12 6343 0.682437 12.011
5655 opls_901 212 MF N22 6344 -0.299729 14.0067
5656 opls_157 212 MF C2 6345 0.024672 12.011
5657 opls_154 212 MF O2 6346 0.0 15.9994
5658 opls_155 212 MF H02 6347 0.0 1.008
5659 opls_156 212 MF H021 6348 0.0 1.008
5660 opls_156 212 MF H022 6349 0.0 1.008
5661 opls_910 212 MF H31 6350 0.0 1.008
5662 A 212 MF A3 6351 0.0 72.06679999999997
5663 opls_902 212 MF N13 6352 -0.407483 14.0067
5664 opls_145 212 MF C13 6353 0.682492 12.011
5665 opls_901 212 MF N23 6354 -0.299758 14.0067
5666 opls_157 212 MF C3 6355 0.024689 12.011
5667 opls_156 212 MF H031 6358 0.0 1.008
5668 opls_156 212 MF H032 6359 0.0 1.008
5669 opls_910 212 MF H11 6360 0.0 1.008
5670 A 213 MF A1 6361 0.0 72.06679999999997
5671 opls_902 213 MF N11 6362 -0.407377 14.0067
5672 opls_145 213 MF C11 6363 0.682493 12.011
5673 opls_901 213 MF N21 6364 -0.299731 14.0067
5674 opls_157 213 MF C1 6365 0.024669 12.011
5675 opls_154 213 MF O1 6366 0.0 15.9994
5676 opls_156 213 MF H011 6368 0.0 1.008
5677 opls_156 213 MF H012 6369 0.0 1.008
5678 opls_910 213 MF H21 6370 0.0 1.008
5679 A 213 MF A2 6371 0.0 72.06679999999997
5680 opls_902 213 MF N12 6372 -0.407374 14.0067
5681 opls_145 213 MF C12 6373 0.682437 12.011
5682 opls_901 213 MF N22 6374 -0.299729 14.0067
5683 opls_157 213 MF C2 6375 0.024672 12.011
5684 opls_154 213 MF O2 6376 0.0 15.9994
5685 opls_156 213 MF H021 6378 0.0 1.008
5686 opls_156 213 MF H022 6379 0.0 1.008
5687 opls_910 213 MF H31 6380 0.0 1.008
5688 A 213 MF A3 6381 0.0 72.06679999999997
5689 opls_902 213 MF N13 6382 -0.407483 14.0067
5690 opls_145 213 MF C13 6383 0.682492 12.011
5691 opls_901 213 MF N23 6384 -0.299758 14.0067
5692 opls_157 213 MF C3 6385 0.024689 12.011
5693 opls_154 213 MF O3 6386 0.0 15.9994
5694 opls_156 213 MF H031 6388 0.0 1.008
5695 opls_156 213 MF H032 6389 0.0 1.008
5696 opls_910 213 MF H11 6390 0.0 1.008
5697 A 214 MF A1 6391 0.0 72.06679999999997
5698 opls_902 214 MF N11 6392 -0.407377 14.0067
5699 opls_145 214 MF C11 6393 0.682493 12.011
5700 opls_901 214 MF N21 6394 -0.299731 14.0067
5701 opls_157 214 MF C1 6395 0.024669 12.011
5702 opls_154 214 MF O1 6396 0.0 15.9994
5703 opls_156 214 MF H011 6398 0.0 1.008
5704 opls_156 214 MF H012 6399 0.0 1.008
5705 opls_910 214 MF H21 6400 0.0 1.008
5706 A 214 MF A2 6401 0.0 72.06679999999997
5707 opls_902 214 MF N12 6402 -0.407374 14.0067
5708 opls_145 214 MF C12 6403 0.682437 12.011
5709 opls_901 214 MF N22 6404 -0.299729 14.0067
5710 opls_157 214 MF C2 6405 0.024672 12.011
5711 opls_156 214 MF H021 6408 0.0 1.008
5712 opls_156 214 MF H022 6409 0.0 1.008
5713 opls_910 214 MF H31 6410 0.0 1.008
5714 A 214 MF A3 6411 0.0 72.06679999999997
5715 opls_902 214 MF N13 6412 -0.407483 14.0067
5716 opls_145 214 MF C13 6413 0.682492 12.011
5717 opls_901 214 MF N23 6414 -0.299758 14.0067
5718 opls_157 214 MF C3 6415 0.024689 12.011
5719 opls_156 214 MF H031 6418 0.0 1.008
5720 opls_156 214 MF H032 6419 0.0 1.008
5721 opls_910 214 MF H11 6420 0.0 1.008
5722 A 215 MF A1 6421 0.0 72.06679999999997
5723 opls_902 215 MF N11 6422 -0.407377 14.0067
5724 opls_145 215 MF C11 6423 0.682493 12.011
5725 opls_901 215 MF N21 6424 -0.299731 14.0067
5726 opls_157 215 MF C1 6425 0.024669 12.011
5727 opls_154 215 MF O1 6426 0.0 15.9994
5728 opls_155 215 MF H01 6427 0.0 1.008
5729 opls_156 215 MF H011 6428 0.0 1.008
5730 opls_156 215 MF H012 6429 0.0 1.008
5731 opls_910 215 MF H21 6430 0.0 1.008
5732 A 215 MF A2 6431 0.0 72.06679999999997
5733 opls_902 215 MF N12 6432 -0.407374 14.0067
5734 opls_145 215 MF C12 6433 0.682437 12.011
5735 opls_901 215 MF N22 6434 -0.299729 14.0067
5736 opls_157 215 MF C2 6435 0.024672 12.011
5737 opls_154 215 MF O2 6436 0.0 15.9994
5738 opls_156 215 MF H021 6438 0.0 1.008
5739 opls_156 215 MF H022 6439 0.0 1.008
5740 opls_910 215 MF H31 6440 0.0 1.008
5741 A 215 MF A3 6441 0.0 72.06679999999997
5742 opls_902 215 MF N13 6442 -0.407483 14.0067
5743 opls_145 215 MF C13 6443 0.682492 12.011
5744 opls_901 215 MF N23 6444 -0.299758 14.0067
5745 opls_157 215 MF C3 6445 0.024689 12.011
5746 opls_154 215 MF O3 6446 0.0 15.9994
5747 opls_156 215 MF H031 6448 0.0 1.008
5748 opls_156 215 MF H032 6449 0.0 1.008
5749 opls_910 215 MF H11 6450 0.0 1.008
5750 A 216 MF A1 6451 0.0 72.06679999999997
5751 opls_902 216 MF N11 6452 -0.407377 14.0067
5752 opls_145 216 MF C11 6453 0.682493 12.011
5753 opls_901 216 MF N21 6454 -0.299731 14.0067
5754 opls_157 216 MF C1 6455 0.024669 12.011
5755 opls_154 216 MF O1 6456 0.0 15.9994
5756 opls_156 216 MF H011 6458 0.0 1.008
5757 opls_156 216 MF H012 6459 0.0 1.008
5758 opls_910 216 MF H21 6460 0.0 1.008
5759 A 216 MF A2 6461 0.0 72.06679999999997
5760 opls_902 216 MF N12 6462 -0.407374 14.0067
5761 opls_145 216 MF C12 6463 0.682437 12.011
5762 opls_901 216 MF N22 6464 -0.299729 14.0067
5763 opls_157 216 MF C2 6465 0.024672 12.011
5764 opls_154 216 MF O2 6466 0.0 15.9994
5765 opls_156 216 MF H021 6468 0.0 1.008
5766 opls_156 216 MF H022 6469 0.0 1.008
5767 opls_910 216 MF H31 6470 0.0 1.008
5768 A 216 MF A3 6471 0.0 72.06679999999997
5769 opls_902 216 MF N13 6472 -0.407483 14.0067
5770 opls_145 216 MF C13 6473 0.682492 12.011
5771 opls_901 216 MF N23 6474 -0.299758 14.0067
5772 opls_157 216 MF C3 6475 0.024689 12.011
5773 opls_154 216 MF O3 6476 0.0 15.9994
5774 opls_156 216 MF H031 6478 0.0 1.008
5775 opls_156 216 MF H032 6479 0.0 1.008
5776 opls_910 216 MF H11 6480 0.0 1.008
5777 A 217 MF A1 6481 0.0 72.06679999999997
5778 opls_902 217 MF N11 6482 -0.407377 14.0067
5779 opls_145 217 MF C11 6483 0.682493 12.011
5780 opls_901 217 MF N21 6484 -0.299731 14.0067
5781 opls_157 217 MF C1 6485 0.024669 12.011
5782 opls_154 217 MF O1 6486 0.0 15.9994
5783 opls_156 217 MF H011 6488 0.0 1.008
5784 opls_156 217 MF H012 6489 0.0 1.008
5785 opls_910 217 MF H21 6490 0.0 1.008
5786 A 217 MF A2 6491 0.0 72.06679999999997
5787 opls_902 217 MF N12 6492 -0.407374 14.0067
5788 opls_145 217 MF C12 6493 0.682437 12.011
5789 opls_901 217 MF N22 6494 -0.299729 14.0067
5790 opls_157 217 MF C2 6495 0.024672 12.011
5791 opls_154 217 MF O2 6496 0.0 15.9994
5792 opls_156 217 MF H021 6498 0.0 1.008
5793 opls_156 217 MF H022 6499 0.0 1.008
5794 opls_910 217 MF H31 6500 0.0 1.008
5795 A 217 MF A3 6501 0.0 72.06679999999997
5796 opls_902 217 MF N13 6502 -0.407483 14.0067
5797 opls_145 217 MF C13 6503 0.682492 12.011
5798 opls_901 217 MF N23 6504 -0.299758 14.0067
5799 opls_157 217 MF C3 6505 0.024689 12.011
5800 opls_156 217 MF H031 6508 0.0 1.008
5801 opls_156 217 MF H032 6509 0.0 1.008
5802 opls_910 217 MF H11 6510 0.0 1.008
5803 A 218 MF A1 6511 0.0 72.06679999999997
5804 opls_902 218 MF N11 6512 -0.407377 14.0067
5805 opls_145 218 MF C11 6513 0.682493 12.011
5806 opls_901 218 MF N21 6514 -0.299731 14.0067
5807 opls_157 218 MF C1 6515 0.024669 12.011
5808 opls_154 218 MF O1 6516 0.0 15.9994
5809 opls_156 218 MF H011 6518 0.0 1.008
5810 opls_156 218 MF H012 6519 0.0 1.008
5811 opls_910 218 MF H21 6520 0.0 1.008
5812 A 218 MF A2 6521 0.0 72.06679999999997
5813 opls_902 218 MF N12 6522 -0.407374 14.0067
5814 opls_145 218 MF C12 6523 0.682437 12.011
5815 opls_901 218 MF N22 6524 -0.299729 14.0067
5816 opls_157 218 MF C2 6525 0.024672 12.011
5817 opls_154 218 MF O2 6526 0.0 15.9994
5818 opls_156 218 MF H021 6528 0.0 1.008
5819 opls_156 218 MF H022 6529 0.0 1.008
5820 opls_910 218 MF H31 6530 0.0 1.008
5821 A 218 MF A3 6531 0.0 72.06679999999997
5822 opls_902 218 MF N13 6532 -0.407483 14.0067
5823 opls_145 218 MF C13 6533 0.682492 12.011
5824 opls_901 218 MF N23 6534 -0.299758 14.0067
5825 opls_157 218 MF C3 6535 0.024689 12.011
5826 opls_156 218 MF H031 6538 0.0 1.008
5827 opls_156 218 MF H032 6539 0.0 1.008
5828 opls_910 218 MF H11 6540 0.0 1.008
5829 A 219 MF A1 6541 0.0 72.06679999999997
5830 opls_902 219 MF N11 6542 -0.407377 14.0067
5831 opls_145 219 MF C11 6543 0.682493 12.011
5832 opls_901 219 MF N21 6544 -0.299731 14.0067
5833 opls_157 219 MF C1 6545 0.024669 12.011
5834 opls_156 219 MF H011 6548 0.0 1.008
5835 opls_156 219 MF H012 6549 0.0 1.008
5836 opls_910 219 MF H21 6550 0.0 1.008
5837 A 219 MF A2 6551 0.0 72.06679999999997
5838 opls_902 219 MF N12 6552 -0.407374 14.0067
5839 opls_145 219 MF C12 6553 0.682437 12.011
5840 opls_901 219 MF N22 6554 -0.299729 14.0067
5841 opls_157 219 MF C2 6555 0.024672 12.011
5842 opls_156 219 MF H021 6558 0.0 1.008
5843 opls_156 219 MF H022 6559 0.0 1.008
5844 opls_910 219 MF H31 6560 0.0 1.008
5845 A 219 MF A3 6561 0.0 72.06679999999997
5846 opls_902 219 MF N13 6562 -0.407483 14.0067
5847 opls_145 219 MF C13 6563 0.682492 12.011
5848 opls_901 219 MF N23 6564 -0.299758 14.0067
5849 opls_157 219 MF C3 6565 0.024689 12.011
5850 opls_154 219 MF O3 6566 0.0 15.9994
5851 opls_156 219 MF H031 6568 0.0 1.008
5852 opls_156 219 MF H032 6569 0.0 1.008
5853 opls_910 219 MF H11 6570 0.0 1.008
5854 A 220 MF A1 6571 0.0 72.06679999999997
5855 opls_902 220 MF N11 6572 -0.407377 14.0067
5856 opls_145 220 MF C11 6573 0.682493 12.011
5857 opls_901 220 MF N21 6574 -0.299731 14.0067
5858 opls_157 220 MF C1 6575 0.024669 12.011
5859 opls_156 220 MF H011 6578 0.0 1.008
5860 opls_156 220 MF H012 6579 0.0 1.008
5861 opls_910 220 MF H21 6580 0.0 1.008
5862 A 220 MF A2 6581 0.0 72.06679999999997
5863 opls_902 220 MF N12 6582 -0.407374 14.0067
5864 opls_145 220 MF C12 6583 0.682437 12.011
5865 opls_901 220 MF N22 6584 -0.299729 14.0067
5866 opls_157 220 MF C2 6585 0.024672 12.011
5867 opls_154 220 MF O2 6586 0.0 15.9994
5868 opls_156 220 MF H021 6588 0.0 1.008
5869 opls_156 220 MF H022 6589 0.0 1.008
5870 opls_910 220 MF H31 6590 0.0 1.008
5871 A 220 MF A3 6591 0.0 72.06679999999997
5872 opls_902 220 MF N13 6592 -0.407483 14.0067
5873 opls_145 220 MF C13 6593 0.682492 12.011
5874 opls_901 220 MF N23 6594 -0.299758 14.0067
5875 opls_157 220 MF C3 6595 0.024689 12.011
5876 opls_156 220 MF H031 6598 0.0 1.008
5877 opls_156 220 MF H032 6599 0.0 1.008
5878 opls_910 220 MF H11 6600 0.0 1.008
5879 A 221 MF A1 6601 0.0 72.06679999999997
5880 opls_902 221 MF N11 6602 -0.407377 14.0067
5881 opls_145 221 MF C11 6603 0.682493 12.011
5882 opls_901 221 MF N21 6604 -0.299731 14.0067
5883 opls_157 221 MF C1 6605 0.024669 12.011
5884 opls_154 221 MF O1 6606 0.0 15.9994
5885 opls_156 221 MF H011 6608 0.0 1.008
5886 opls_156 221 MF H012 6609 0.0 1.008
5887 opls_910 221 MF H21 6610 0.0 1.008
5888 A 221 MF A2 6611 0.0 72.06679999999997
5889 opls_902 221 MF N12 6612 -0.407374 14.0067
5890 opls_145 221 MF C12 6613 0.682437 12.011
5891 opls_901 221 MF N22 6614 -0.299729 14.0067
5892 opls_157 221 MF C2 6615 0.024672 12.011
5893 opls_156 221 MF H021 6618 0.0 1.008
5894 opls_156 221 MF H022 6619 0.0 1.008
5895 opls_910 221 MF H31 6620 0.0 1.008
5896 A 221 MF A3 6621 0.0 72.06679999999997
5897 opls_902 221 MF N13 6622 -0.407483 14.0067
5898 opls_145 221 MF C13 6623 0.682492 12.011
5899 opls_901 221 MF N23 6624 -0.299758 14.0067
5900 opls_157 221 MF C3 6625 0.024689 12.011
5901 opls_156 221 MF H031 6628 0.0 1.008
5902 opls_156 221 MF H032 6629 0.0 1.008
5903 opls_910 221 MF H11 6630 0.0 1.008
5904 A 222 MF A1 6631 0.0 72.06679999999997
5905 opls_902 222 MF N11 6632 -0.407377 14.0067
5906 opls_145 222 MF C11 6633 0.682493 12.011
5907 opls_901 222 MF N21 6634 -0.299731 14.0067
5908 opls_157 222 MF C1 6635 0.024669 12.011
5909 opls_154 222 MF O1 6636 0.0 15.9994
5910 opls_156 222 MF H011 6638 0.0 1.008
5911 opls_156 222 MF H012 6639 0.0 1.008
5912 opls_910 222 MF H21 6640 0.0 1.008
5913 A 222 MF A2 6641 0.0 72.06679999999997
5914 opls_902 222 MF N12 6642 -0.407374 14.0067
5915 opls_145 222 MF C12 6643 0.682437 12.011
5916 opls_901 222 MF N22 6644 -0.299729 14.0067
5917 opls_157 222 MF C2 6645 0.024672 12.011
5918 opls_154 222 MF O2 6646 0.0 15.9994
5919 opls_156 222 MF H021 6648 0.0 1.008
5920 opls_156 222 MF H022 6649 0.0 1.008
5921 opls_910 222 MF H31 6650 0.0 1.008
5922 A 222 MF A3 6651 0.0 72.06679999999997
5923 opls_902 222 MF N13 6652 -0.407483 14.0067
5924 opls_145 222 MF C13 6653 0.682492 12.011
5925 opls_901 222 MF N23 6654 -0.299758 14.0067
5926 opls_157 222 MF C3 6655 0.024689 12.011
5927 opls_154 222 MF O3 6656 0.0 15.9994
5928 opls_156 222 MF H031 6658 0.0 1.008
5929 opls_156 222 MF H032 6659 0.0 1.008
5930 opls_910 222 MF H11 6660 0.0 1.008
5931 A 223 MF A1 6661 0.0 72.06679999999997
5932 opls_902 223 MF N11 6662 -0.407377 14.0067
5933 opls_145 223 MF C11 6663 0.682493 12.011
5934 opls_901 223 MF N21 6664 -0.299731 14.0067
5935 opls_157 223 MF C1 6665 0.024669 12.011
5936 opls_156 223 MF H011 6668 0.0 1.008
5937 opls_156 223 MF H012 6669 0.0 1.008
5938 opls_910 223 MF H21 6670 0.0 1.008
5939 A 223 MF A2 6671 0.0 72.06679999999997
5940 opls_902 223 MF N12 6672 -0.407374 14.0067
5941 opls_145 223 MF C12 6673 0.682437 12.011
5942 opls_901 223 MF N22 6674 -0.299729 14.0067
5943 opls_157 223 MF C2 6675 0.024672 12.011
5944 opls_154 223 MF O2 6676 0.0 15.9994
5945 opls_156 223 MF H021 6678 0.0 1.008
5946 opls_156 223 MF H022 6679 0.0 1.008
5947 opls_910 223 MF H31 6680 0.0 1.008
5948 A 223 MF A3 6681 0.0 72.06679999999997
5949 opls_902 223 MF N13 6682 -0.407483 14.0067
5950 opls_145 223 MF C13 6683 0.682492 12.011
5951 opls_901 223 MF N23 6684 -0.299758 14.0067
5952 opls_157 223 MF C3 6685 0.024689 12.011
5953 opls_156 223 MF H031 6688 0.0 1.008
5954 opls_156 223 MF H032 6689 0.0 1.008
5955 opls_910 223 MF H11 6690 0.0 1.008
5956 A 224 MF A1 6691 0.0 72.06679999999997
5957 opls_902 224 MF N11 6692 -0.407377 14.0067
5958 opls_145 224 MF C11 6693 0.682493 12.011
5959 opls_901 224 MF N21 6694 -0.299731 14.0067
5960 opls_157 224 MF C1 6695 0.024669 12.011
5961 opls_154 224 MF O1 6696 0.0 15.9994
5962 opls_156 224 MF H011 6698 0.0 1.008
5963 opls_156 224 MF H012 6699 0.0 1.008
5964 opls_910 224 MF H21 6700 0.0 1.008
5965 A 224 MF A2 6701 0.0 72.06679999999997
5966 opls_902 224 MF N12 6702 -0.407374 14.0067
5967 opls_145 224 MF C12 6703 0.682437 12.011
5968 opls_901 224 MF N22 6704 -0.299729 14.0067
5969 opls_157 224 MF C2 6705 0.024672 12.011
5970 opls_156 224 MF H021 6708 0.0 1.008
5971 opls_156 224 MF H022 6709 0.0 1.008
5972 opls_910 224 MF H31 6710 0.0 1.008
5973 A 224 MF A3 6711 0.0 72.06679999999997
5974 opls_902 224 MF N13 6712 -0.407483 14.0067
5975 opls_145 224 MF C13 6713 0.682492 12.011
5976 opls_901 224 MF N23 6714 -0.299758 14.0067
5977 opls_157 224 MF C3 6715 0.024689 12.011
5978 opls_154 224 MF O3 6716 0.0 15.9994
5979 opls_156 224 MF H031 6718 0.0 1.008
5980 opls_156 224 MF H032 6719 0.0 1.008
5981 opls_910 224 MF H11 6720 0.0 1.008
5982 A 225 MF A1 6721 0.0 72.06679999999997
5983 opls_902 225 MF N11 6722 -0.407377 14.0067
5984 opls_145 225 MF C11 6723 0.682493 12.011
5985 opls_901 225 MF N21 6724 -0.299731 14.0067
5986 opls_157 225 MF C1 6725 0.024669 12.011
5987 opls_154 225 MF O1 6726 0.0 15.9994
5988 opls_156 225 MF H011 6728 0.0 1.008
5989 opls_156 225 MF H012 6729 0.0 1.008
5990 opls_910 225 MF H21 6730 0.0 1.008
5991 A 225 MF A2 6731 0.0 72.06679999999997
5992 opls_902 225 MF N12 6732 -0.407374 14.0067
5993 opls_145 225 MF C12 6733 0.682437 12.011
5994 opls_901 225 MF N22 6734 -0.299729 14.0067
5995 opls_157 225 MF C2 6735 0.024672 12.011
5996 opls_154 225 MF O2 6736 0.0 15.9994
5997 opls_156 225 MF H021 6738 0.0 1.008
5998 opls_156 225 MF H022 6739 0.0 1.008
5999 opls_910 225 MF H31 6740 0.0 1.008
6000 A 225 MF A3 6741 0.0 72.06679999999997
6001 opls_902 225 MF N13 6742 -0.407483 14.0067
6002 opls_145 225 MF C13 6743 0.682492 12.011
6003 opls_901 225 MF N23 6744 -0.299758 14.0067
6004 opls_157 225 MF C3 6745 0.024689 12.011
6005 opls_156 225 MF H031 6748 0.0 1.008
6006 opls_156 225 MF H032 6749 0.0 1.008
6007 opls_910 225 MF H11 6750 0.0 1.008
6008 A 226 MF A1 6751 0.0 72.06679999999997
6009 opls_902 226 MF N11 6752 -0.407377 14.0067
6010 opls_145 226 MF C11 6753 0.682493 12.011
6011 opls_901 226 MF N21 6754 -0.299731 14.0067
6012 opls_157 226 MF C1 6755 0.024669 12.011
6013 opls_154 226 MF O1 6756 0.0 15.9994
6014 opls_155 226 MF H01 6757 0.0 1.008
6015 opls_156 226 MF H011 6758 0.0 1.008
6016 opls_156 226 MF H012 6759 0.0 1.008
6017 opls_910 226 MF H21 6760 0.0 1.008
6018 A 226 MF A2 6761 0.0 72.06679999999997
6019 opls_902 226 MF N12 6762 -0.407374 14.0067
6020 opls_145 226 MF C12 6763 0.682437 12.011
6021 opls_901 226 MF N22 6764 -0.299729 14.0067
6022 opls_157 226 MF C2 6765 0.024672 12.011
6023 opls_156 226 MF H021 6768 0.0 1.008
6024 opls_156 226 MF H022 6769 0.0 1.008
6025 opls_910 226 MF H31 6770 0.0 1.008
6026 A 226 MF A3 6771 0.0 72.06679999999997
6027 opls_902 226 MF N13 6772 -0.407483 14.0067
6028 opls_145 226 MF C13 6773 0.682492 12.011
6029 opls_901 226 MF N23 6774 -0.299758 14.0067
6030 opls_157 226 MF C3 6775 0.024689 12.011
6031 opls_156 226 MF H031 6778 0.0 1.008
6032 opls_156 226 MF H032 6779 0.0 1.008
6033 opls_910 226 MF H11 6780 0.0 1.008
6034 A 227 MF A1 6781 0.0 72.06679999999997
6035 opls_902 227 MF N11 6782 -0.407377 14.0067
6036 opls_145 227 MF C11 6783 0.682493 12.011
6037 opls_901 227 MF N21 6784 -0.299731 14.0067
6038 opls_157 227 MF C1 6785 0.024669 12.011
6039 opls_156 227 MF H011 6788 0.0 1.008
6040 opls_156 227 MF H012 6789 0.0 1.008
6041 opls_910 227 MF H21 6790 0.0 1.008
6042 A 227 MF A2 6791 0.0 72.06679999999997
6043 opls_902 227 MF N12 6792 -0.407374 14.0067
6044 opls_145 227 MF C12 6793 0.682437 12.011
6045 opls_901 227 MF N22 6794 -0.299729 14.0067
6046 opls_157 227 MF C2 6795 0.024672 12.011
6047 opls_154 227 MF O2 6796 0.0 15.9994
6048 opls_156 227 MF H021 6798 0.0 1.008
6049 opls_156 227 MF H022 6799 0.0 1.008
6050 opls_910 227 MF H31 6800 0.0 1.008
6051 A 227 MF A3 6801 0.0 72.06679999999997
6052 opls_902 227 MF N13 6802 -0.407483 14.0067
6053 opls_145 227 MF C13 6803 0.682492 12.011
6054 opls_901 227 MF N23 6804 -0.299758 14.0067
6055 opls_157 227 MF C3 6805 0.024689 12.011
6056 opls_154 227 MF O3 6806 0.0 15.9994
6057 opls_155 227 MF H03 6807 0.0 1.008
6058 opls_156 227 MF H031 6808 0.0 1.008
6059 opls_156 227 MF H032 6809 0.0 1.008
6060 opls_910 227 MF H11 6810 0.0 1.008
6061 A 228 MF A1 6811 0.0 72.06679999999997
6062 opls_902 228 MF N11 6812 -0.407377 14.0067
6063 opls_145 228 MF C11 6813 0.682493 12.011
6064 opls_901 228 MF N21 6814 -0.299731 14.0067
6065 opls_157 228 MF C1 6815 0.024669 12.011
6066 opls_156 228 MF H011 6818 0.0 1.008
6067 opls_156 228 MF H012 6819 0.0 1.008
6068 opls_910 228 MF H21 6820 0.0 1.008
6069 A 228 MF A2 6821 0.0 72.06679999999997
6070 opls_902 228 MF N12 6822 -0.407374 14.0067
6071 opls_145 228 MF C12 6823 0.682437 12.011
6072 opls_901 228 MF N22 6824 -0.299729 14.0067
6073 opls_157 228 MF C2 6825 0.024672 12.011
6074 opls_154 228 MF O2 6826 0.0 15.9994
6075 opls_156 228 MF H021 6828 0.0 1.008
6076 opls_156 228 MF H022 6829 0.0 1.008
6077 opls_910 228 MF H31 6830 0.0 1.008
6078 A 228 MF A3 6831 0.0 72.06679999999997
6079 opls_902 228 MF N13 6832 -0.407483 14.0067
6080 opls_145 228 MF C13 6833 0.682492 12.011
6081 opls_901 228 MF N23 6834 -0.299758 14.0067
6082 opls_157 228 MF C3 6835 0.024689 12.011
6083 opls_154 228 MF O3 6836 0.0 15.9994
6084 opls_156 228 MF H031 6838 0.0 1.008
6085 opls_156 228 MF H032 6839 0.0 1.008
6086 opls_910 228 MF H11 6840 0.0 1.008
6087 A 229 MF A1 6841 0.0 72.06679999999997
6088 opls_902 229 MF N11 6842 -0.407377 14.0067
6089 opls_145 229 MF C11 6843 0.682493 12.011
6090 opls_901 229 MF N21 6844 -0.299731 14.0067
6091 opls_157 229 MF C1 6845 0.024669 12.011
6092 opls_154 229 MF O1 6846 0.0 15.9994
6093 opls_156 229 MF H011 6848 0.0 1.008
6094 opls_156 229 MF H012 6849 0.0 1.008
6095 opls_910 229 MF H21 6850 0.0 1.008
6096 A 229 MF A2 6851 0.0 72.06679999999997
6097 opls_902 229 MF N12 6852 -0.407374 14.0067
6098 opls_145 229 MF C12 6853 0.682437 12.011
6099 opls_901 229 MF N22 6854 -0.299729 14.0067
6100 opls_157 229 MF C2 6855 0.024672 12.011
6101 opls_154 229 MF O2 6856 0.0 15.9994
6102 opls_156 229 MF H021 6858 0.0 1.008
6103 opls_156 229 MF H022 6859 0.0 1.008
6104 opls_910 229 MF H31 6860 0.0 1.008
6105 A 229 MF A3 6861 0.0 72.06679999999997
6106 opls_902 229 MF N13 6862 -0.407483 14.0067
6107 opls_145 229 MF C13 6863 0.682492 12.011
6108 opls_901 229 MF N23 6864 -0.299758 14.0067
6109 opls_157 229 MF C3 6865 0.024689 12.011
6110 opls_156 229 MF H031 6868 0.0 1.008
6111 opls_156 229 MF H032 6869 0.0 1.008
6112 opls_910 229 MF H11 6870 0.0 1.008
6113 A 230 MF A1 6871 0.0 72.06679999999997
6114 opls_902 230 MF N11 6872 -0.407377 14.0067
6115 opls_145 230 MF C11 6873 0.682493 12.011
6116 opls_901 230 MF N21 6874 -0.299731 14.0067
6117 opls_157 230 MF C1 6875 0.024669 12.011
6118 opls_154 230 MF O1 6876 0.0 15.9994
6119 opls_156 230 MF H011 6878 0.0 1.008
6120 opls_156 230 MF H012 6879 0.0 1.008
6121 opls_910 230 MF H21 6880 0.0 1.008
6122 A 230 MF A2 6881 0.0 72.06679999999997
6123 opls_902 230 MF N12 6882 -0.407374 14.0067
6124 opls_145 230 MF C12 6883 0.682437 12.011
6125 opls_901 230 MF N22 6884 -0.299729 14.0067
6126 opls_157 230 MF C2 6885 0.024672 12.011
6127 opls_154 230 MF O2 6886 0.0 15.9994
6128 opls_156 230 MF H021 6888 0.0 1.008
6129 opls_156 230 MF H022 6889 0.0 1.008
6130 opls_910 230 MF H31 6890 0.0 1.008
6131 A 230 MF A3 6891 0.0 72.06679999999997
6132 opls_902 230 MF N13 6892 -0.407483 14.0067
6133 opls_145 230 MF C13 6893 0.682492 12.011
6134 opls_901 230 MF N23 6894 -0.299758 14.0067
6135 opls_157 230 MF C3 6895 0.024689 12.011
6136 opls_156 230 MF H031 6898 0.0 1.008
6137 opls_156 230 MF H032 6899 0.0 1.008
6138 opls_910 230 MF H11 6900 0.0 1.008
6139 A 231 MF A1 6901 0.0 72.06679999999997
6140 opls_902 231 MF N11 6902 -0.407377 14.0067
6141 opls_145 231 MF C11 6903 0.682493 12.011
6142 opls_901 231 MF N21 6904 -0.299731 14.0067
6143 opls_157 231 MF C1 6905 0.024669 12.011
6144 opls_154 231 MF O1 6906 0.0 15.9994
6145 opls_156 231 MF H011 6908 0.0 1.008
6146 opls_156 231 MF H012 6909 0.0 1.008
6147 opls_910 231 MF H21 6910 0.0 1.008
6148 A 231 MF A2 6911 0.0 72.06679999999997
6149 opls_902 231 MF N12 6912 -0.407374 14.0067
6150 opls_145 231 MF C12 6913 0.682437 12.011
6151 opls_901 231 MF N22 6914 -0.299729 14.0067
6152 opls_157 231 MF C2 6915 0.024672 12.011
6153 opls_154 231 MF O2 6916 0.0 15.9994
6154 opls_156 231 MF H021 6918 0.0 1.008
6155 opls_156 231 MF H022 6919 0.0 1.008
6156 opls_910 231 MF H31 6920 0.0 1.008
6157 A 231 MF A3 6921 0.0 72.06679999999997
6158 opls_902 231 MF N13 6922 -0.407483 14.0067
6159 opls_145 231 MF C13 6923 0.682492 12.011
6160 opls_901 231 MF N23 6924 -0.299758 14.0067
6161 opls_157 231 MF C3 6925 0.024689 12.011
6162 opls_154 231 MF O3 6926 0.0 15.9994
6163 opls_156 231 MF H031 6928 0.0 1.008
6164 opls_156 231 MF H032 6929 0.0 1.008
6165 opls_910 231 MF H11 6930 0.0 1.008
6166 A 232 MF A1 6931 0.0 72.06679999999997
6167 opls_902 232 MF N11 6932 -0.407377 14.0067
6168 opls_145 232 MF C11 6933 0.682493 12.011
6169 opls_901 232 MF N21 6934 -0.299731 14.0067
6170 opls_157 232 MF C1 6935 0.024669 12.011
6171 opls_154 232 MF O1 6936 0.0 15.9994
6172 opls_155 232 MF H01 6937 0.0 1.008
6173 opls_156 232 MF H011 6938 0.0 1.008
6174 opls_156 232 MF H012 6939 0.0 1.008
6175 opls_910 232 MF H21 6940 0.0 1.008
6176 A 232 MF A2 6941 0.0 72.06679999999997
6177 opls_902 232 MF N12 6942 -0.407374 14.0067
6178 opls_145 232 MF C12 6943 0.682437 12.011
6179 opls_901 232 MF N22 6944 -0.299729 14.0067
6180 opls_157 232 MF C2 6945 0.024672 12.011
6181 opls_154 232 MF O2 6946 0.0 15.9994
6182 opls_156 232 MF H021 6948 0.0 1.008
6183 opls_156 232 MF H022 6949 0.0 1.008
6184 opls_910 232 MF H31 6950 0.0 1.008
6185 A 232 MF A3 6951 0.0 72.06679999999997
6186 opls_902 232 MF N13 6952 -0.407483 14.0067
6187 opls_145 232 MF C13 6953 0.682492 12.011
6188 opls_901 232 MF N23 6954 -0.299758 14.0067
6189 opls_157 232 MF C3 6955 0.024689 12.011
6190 opls_154 232 MF O3 6956 0.0 15.9994
6191 opls_156 232 MF H031 6958 0.0 1.008
6192 opls_156 232 MF H032 6959 0.0 1.008
6193 opls_910 232 MF H11 6960 0.0 1.008
6194 A 233 MF A1 6961 0.0 72.06679999999997
6195 opls_902 233 MF N11 6962 -0.407377 14.0067
6196 opls_145 233 MF C11 6963 0.682493 12.011
6197 opls_901 233 MF N21 6964 -0.299731 14.0067
6198 opls_157 233 MF C1 6965 0.024669 12.011
6199 opls_156 233 MF H011 6968 0.0 1.008
6200 opls_156 233 MF H012 6969 0.0 1.008
6201 opls_910 233 MF H21 6970 0.0 1.008
6202 A 233 MF A2 6971 0.0 72.06679999999997
6203 opls_902 233 MF N12 6972 -0.407374 14.0067
6204 opls_145 233 MF C12 6973 0.682437 12.011
6205 opls_901 233 MF N22 6974 -0.299729 14.0067
6206 opls_157 233 MF C2 6975 0.024672 12.011
6207 opls_154 233 MF O2 6976 0.0 15.9994
6208 opls_156 233 MF H021 6978 0.0 1.008
6209 opls_156 233 MF H022 6979 0.0 1.008
6210 opls_910 233 MF H31 6980 0.0 1.008
6211 A 233 MF A3 6981 0.0 72.06679999999997
6212 opls_902 233 MF N13 6982 -0.407483 14.0067
6213 opls_145 233 MF C13 6983 0.682492 12.011
6214 opls_901 233 MF N23 6984 -0.299758 14.0067
6215 opls_157 233 MF C3 6985 0.024689 12.011
6216 opls_154 233 MF O3 6986 0.0 15.9994
6217 opls_156 233 MF H031 6988 0.0 1.008
6218 opls_156 233 MF H032 6989 0.0 1.008
6219 opls_910 233 MF H11 6990 0.0 1.008
6220 A 234 MF A1 6991 0.0 72.06679999999997
6221 opls_902 234 MF N11 6992 -0.407377 14.0067
6222 opls_145 234 MF C11 6993 0.682493 12.011
6223 opls_901 234 MF N21 6994 -0.299731 14.0067
6224 opls_157 234 MF C1 6995 0.024669 12.011
6225 opls_154 234 MF O1 6996 0.0 15.9994
6226 opls_155 234 MF H01 6997 0.0 1.008
6227 opls_156 234 MF H011 6998 0.0 1.008
6228 opls_156 234 MF H012 6999 0.0 1.008
6229 opls_910 234 MF H21 7000 0.0 1.008
6230 A 234 MF A2 7001 0.0 72.06679999999997
6231 opls_902 234 MF N12 7002 -0.407374 14.0067
6232 opls_145 234 MF C12 7003 0.682437 12.011
6233 opls_901 234 MF N22 7004 -0.299729 14.0067
6234 opls_157 234 MF C2 7005 0.024672 12.011
6235 opls_154 234 MF O2 7006 0.0 15.9994
6236 opls_156 234 MF H021 7008 0.0 1.008
6237 opls_156 234 MF H022 7009 0.0 1.008
6238 opls_910 234 MF H31 7010 0.0 1.008
6239 A 234 MF A3 7011 0.0 72.06679999999997
6240 opls_902 234 MF N13 7012 -0.407483 14.0067
6241 opls_145 234 MF C13 7013 0.682492 12.011
6242 opls_901 234 MF N23 7014 -0.299758 14.0067
6243 opls_157 234 MF C3 7015 0.024689 12.011
6244 opls_154 234 MF O3 7016 0.0 15.9994
6245 opls_155 234 MF H03 7017 0.0 1.008
6246 opls_156 234 MF H031 7018 0.0 1.008
6247 opls_156 234 MF H032 7019 0.0 1.008
6248 opls_910 234 MF H11 7020 0.0 1.008
6249 A 235 MF A1 7021 0.0 72.06679999999997
6250 opls_902 235 MF N11 7022 -0.407377 14.0067
6251 opls_145 235 MF C11 7023 0.682493 12.011
6252 opls_901 235 MF N21 7024 -0.299731 14.0067
6253 opls_157 235 MF C1 7025 0.024669 12.011
6254 opls_156 235 MF H011 7028 0.0 1.008
6255 opls_156 235 MF H012 7029 0.0 1.008
6256 opls_910 235 MF H21 7030 0.0 1.008
6257 A 235 MF A2 7031 0.0 72.06679999999997
6258 opls_902 235 MF N12 7032 -0.407374 14.0067
6259 opls_145 235 MF C12 7033 0.682437 12.011
6260 opls_901 235 MF N22 7034 -0.299729 14.0067
6261 opls_157 235 MF C2 7035 0.024672 12.011
6262 opls_154 235 MF O2 7036 0.0 15.9994
6263 opls_155 235 MF H02 7037 0.0 1.008
6264 opls_156 235 MF H021 7038 0.0 1.008
6265 opls_156 235 MF H022 7039 0.0 1.008
6266 opls_910 235 MF H31 7040 0.0 1.008
6267 A 235 MF A3 7041 0.0 72.06679999999997
6268 opls_902 235 MF N13 7042 -0.407483 14.0067
6269 opls_145 235 MF C13 7043 0.682492 12.011
6270 opls_901 235 MF N23 7044 -0.299758 14.0067
6271 opls_157 235 MF C3 7045 0.024689 12.011
6272 opls_154 235 MF O3 7046 0.0 15.9994
6273 opls_156 235 MF H031 7048 0.0 1.008
6274 opls_156 235 MF H032 7049 0.0 1.008
6275 opls_910 235 MF H11 7050 0.0 1.008
6276 A 236 MF A1 7051 0.0 72.06679999999997
6277 opls_902 236 MF N11 7052 -0.407377 14.0067
6278 opls_145 236 MF C11 7053 0.682493 12.011
6279 opls_901 236 MF N21 7054 -0.299731 14.0067
6280 opls_157 236 MF C1 7055 0.024669 12.011
6281 opls_156 236 MF H011 7058 0.0 1.008
6282 opls_156 236 MF H012 7059 0.0 1.008
6283 opls_910 236 MF H21 7060 0.0 1.008
6284 A 236 MF A2 7061 0.0 72.06679999999997
6285 opls_902 236 MF N12 7062 -0.407374 14.0067
6286 opls_145 236 MF C12 7063 0.682437 12.011
6287 opls_901 236 MF N22 7064 -0.299729 14.0067
6288 opls_157 236 MF C2 7065 0.024672 12.011
6289 opls_154 236 MF O2 7066 0.0 15.9994
6290 opls_156 236 MF H021 7068 0.0 1.008
6291 opls_156 236 MF H022 7069 0.0 1.008
6292 opls_910 236 MF H31 7070 0.0 1.008
6293 A 236 MF A3 7071 0.0 72.06679999999997
6294 opls_902 236 MF N13 7072 -0.407483 14.0067
6295 opls_145 236 MF C13 7073 0.682492 12.011
6296 opls_901 236 MF N23 7074 -0.299758 14.0067
6297 opls_157 236 MF C3 7075 0.024689 12.011
6298 opls_156 236 MF H031 7078 0.0 1.008
6299 opls_156 236 MF H032 7079 0.0 1.008
6300 opls_910 236 MF H11 7080 0.0 1.008
6301 A 237 MF A1 7081 0.0 72.06679999999997
6302 opls_902 237 MF N11 7082 -0.407377 14.0067
6303 opls_145 237 MF C11 7083 0.682493 12.011
6304 opls_901 237 MF N21 7084 -0.299731 14.0067
6305 opls_157 237 MF C1 7085 0.024669 12.011
6306 opls_154 237 MF O1 7086 0.0 15.9994
6307 opls_155 237 MF H01 7087 0.0 1.008
6308 opls_156 237 MF H011 7088 0.0 1.008
6309 opls_156 237 MF H012 7089 0.0 1.008
6310 opls_910 237 MF H21 7090 0.0 1.008
6311 A 237 MF A2 7091 0.0 72.06679999999997
6312 opls_902 237 MF N12 7092 -0.407374 14.0067
6313 opls_145 237 MF C12 7093 0.682437 12.011
6314 opls_901 237 MF N22 7094 -0.299729 14.0067
6315 opls_157 237 MF C2 7095 0.024672 12.011
6316 opls_154 237 MF O2 7096 0.0 15.9994
6317 opls_156 237 MF H021 7098 0.0 1.008
6318 opls_156 237 MF H022 7099 0.0 1.008
6319 opls_910 237 MF H31 7100 0.0 1.008
6320 A 237 MF A3 7101 0.0 72.06679999999997
6321 opls_902 237 MF N13 7102 -0.407483 14.0067
6322 opls_145 237 MF C13 7103 0.682492 12.011
6323 opls_901 237 MF N23 7104 -0.299758 14.0067
6324 opls_157 237 MF C3 7105 0.024689 12.011
6325 opls_154 237 MF O3 7106 0.0 15.9994
6326 opls_155 237 MF H03 7107 0.0 1.008
6327 opls_156 237 MF H031 7108 0.0 1.008
6328 opls_156 237 MF H032 7109 0.0 1.008
6329 opls_910 237 MF H11 7110 0.0 1.008
6330 A 238 MF A1 7111 0.0 72.06679999999997
6331 opls_902 238 MF N11 7112 -0.407377 14.0067
6332 opls_145 238 MF C11 7113 0.682493 12.011
6333 opls_901 238 MF N21 7114 -0.299731 14.0067
6334 opls_157 238 MF C1 7115 0.024669 12.011
6335 opls_154 238 MF O1 7116 0.0 15.9994
6336 opls_155 238 MF H01 7117 0.0 1.008
6337 opls_156 238 MF H011 7118 0.0 1.008
6338 opls_156 238 MF H012 7119 0.0 1.008
6339 opls_910 238 MF H21 7120 0.0 1.008
6340 A 238 MF A2 7121 0.0 72.06679999999997
6341 opls_902 238 MF N12 7122 -0.407374 14.0067
6342 opls_145 238 MF C12 7123 0.682437 12.011
6343 opls_901 238 MF N22 7124 -0.299729 14.0067
6344 opls_157 238 MF C2 7125 0.024672 12.011
6345 opls_154 238 MF O2 7126 0.0 15.9994
6346 opls_156 238 MF H021 7128 0.0 1.008
6347 opls_156 238 MF H022 7129 0.0 1.008
6348 opls_910 238 MF H31 7130 0.0 1.008
6349 A 238 MF A3 7131 0.0 72.06679999999997
6350 opls_902 238 MF N13 7132 -0.407483 14.0067
6351 opls_145 238 MF C13 7133 0.682492 12.011
6352 opls_901 238 MF N23 7134 -0.299758 14.0067
6353 opls_157 238 MF C3 7135 0.024689 12.011
6354 opls_154 238 MF O3 7136 0.0 15.9994
6355 opls_156 238 MF H031 7138 0.0 1.008
6356 opls_156 238 MF H032 7139 0.0 1.008
6357 opls_910 238 MF H11 7140 0.0 1.008
6358 A 239 MF A1 7141 0.0 72.06679999999997
6359 opls_902 239 MF N11 7142 -0.407377 14.0067
6360 opls_145 239 MF C11 7143 0.682493 12.011
6361 opls_901 239 MF N21 7144 -0.299731 14.0067
6362 opls_157 239 MF C1 7145 0.024669 12.011
6363 opls_156 239 MF H011 7148 0.0 1.008
6364 opls_156 239 MF H012 7149 0.0 1.008
6365 opls_910 239 MF H21 7150 0.0 1.008
6366 A 239 MF A2 7151 0.0 72.06679999999997
6367 opls_902 239 MF N12 7152 -0.407374 14.0067
6368 opls_145 239 MF C12 7153 0.682437 12.011
6369 opls_901 239 MF N22 7154 -0.299729 14.0067
6370 opls_157 239 MF C2 7155 0.024672 12.011
6371 opls_156 239 MF H021 7158 0.0 1.008
6372 opls_156 239 MF H022 7159 0.0 1.008
6373 opls_910 239 MF H31 7160 0.0 1.008
6374 A 239 MF A3 7161 0.0 72.06679999999997
6375 opls_902 239 MF N13 7162 -0.407483 14.0067
6376 opls_145 239 MF C13 7163 0.682492 12.011
6377 opls_901 239 MF N23 7164 -0.299758 14.0067
6378 opls_157 239 MF C3 7165 0.024689 12.011
6379 opls_154 239 MF O3 7166 0.0 15.9994
6380 opls_156 239 MF H031 7168 0.0 1.008
6381 opls_156 239 MF H032 7169 0.0 1.008
6382 opls_910 239 MF H11 7170 0.0 1.008
6383 A 240 MF A1 7171 0.0 72.06679999999997
6384 opls_902 240 MF N11 7172 -0.407377 14.0067
6385 opls_145 240 MF C11 7173 0.682493 12.011
6386 opls_901 240 MF N21 7174 -0.299731 14.0067
6387 opls_157 240 MF C1 7175 0.024669 12.011
6388 opls_154 240 MF O1 7176 0.0 15.9994
6389 opls_155 240 MF H01 7177 0.0 1.008
6390 opls_156 240 MF H011 7178 0.0 1.008
6391 opls_156 240 MF H012 7179 0.0 1.008
6392 opls_910 240 MF H21 7180 0.0 1.008
6393 A 240 MF A2 7181 0.0 72.06679999999997
6394 opls_902 240 MF N12 7182 -0.407374 14.0067
6395 opls_145 240 MF C12 7183 0.682437 12.011
6396 opls_901 240 MF N22 7184 -0.299729 14.0067
6397 opls_157 240 MF C2 7185 0.024672 12.011
6398 opls_154 240 MF O2 7186 0.0 15.9994
6399 opls_156 240 MF H021 7188 0.0 1.008
6400 opls_156 240 MF H022 7189 0.0 1.008
6401 opls_910 240 MF H31 7190 0.0 1.008
6402 A 240 MF A3 7191 0.0 72.06679999999997
6403 opls_902 240 MF N13 7192 -0.407483 14.0067
6404 opls_145 240 MF C13 7193 0.682492 12.011
6405 opls_901 240 MF N23 7194 -0.299758 14.0067
6406 opls_157 240 MF C3 7195 0.024689 12.011
6407 opls_156 240 MF H031 7198 0.0 1.008
6408 opls_156 240 MF H032 7199 0.0 1.008
6409 opls_910 240 MF H11 7200 0.0 1.008
6410 A 241 MF A1 7201 0.0 72.06679999999997
6411 opls_902 241 MF N11 7202 -0.407377 14.0067
6412 opls_145 241 MF C11 7203 0.682493 12.011
6413 opls_901 241 MF N21 7204 -0.299731 14.0067
6414 opls_157 241 MF C1 7205 0.024669 12.011
6415 opls_156 241 MF H011 7208 0.0 1.008
6416 opls_156 241 MF H012 7209 0.0 1.008
6417 opls_910 241 MF H21 7210 0.0 1.008
6418 A 241 MF A2 7211 0.0 72.06679999999997
6419 opls_902 241 MF N12 7212 -0.407374 14.0067
6420 opls_145 241 MF C12 7213 0.682437 12.011
6421 opls_901 241 MF N22 7214 -0.299729 14.0067
6422 opls_157 241 MF C2 7215 0.024672 12.011
6423 opls_154 241 MF O2 7216 0.0 15.9994
6424 opls_156 241 MF H021 7218 0.0 1.008
6425 opls_156 241 MF H022 7219 0.0 1.008
6426 opls_910 241 MF H31 7220 0.0 1.008
6427 A 241 MF A3 7221 0.0 72.06679999999997
6428 opls_902 241 MF N13 7222 -0.407483 14.0067
6429 opls_145 241 MF C13 7223 0.682492 12.011
6430 opls_901 241 MF N23 7224 -0.299758 14.0067
6431 opls_157 241 MF C3 7225 0.024689 12.011
6432 opls_154 241 MF O3 7226 0.0 15.9994
6433 opls_156 241 MF H031 7228 0.0 1.008
6434 opls_156 241 MF H032 7229 0.0 1.008
6435 opls_910 241 MF H11 7230 0.0 1.008
6436 A 242 MF A1 7231 0.0 72.06679999999997
6437 opls_902 242 MF N11 7232 -0.407377 14.0067
6438 opls_145 242 MF C11 7233 0.682493 12.011
6439 opls_901 242 MF N21 7234 -0.299731 14.0067
6440 opls_157 242 MF C1 7235 0.024669 12.011
6441 opls_156 242 MF H011 7238 0.0 1.008
6442 opls_156 242 MF H012 7239 0.0 1.008
6443 opls_910 242 MF H21 7240 0.0 1.008
6444 A 242 MF A2 7241 0.0 72.06679999999997
6445 opls_902 242 MF N12 7242 -0.407374 14.0067
6446 opls_145 242 MF C12 7243 0.682437 12.011
6447 opls_901 242 MF N22 7244 -0.299729 14.0067
6448 opls_157 242 MF C2 7245 0.024672 12.011
6449 opls_156 242 MF H021 7248 0.0 1.008
6450 opls_156 242 MF H022 7249 0.0 1.008
6451 opls_910 242 MF H31 7250 0.0 1.008
6452 A 242 MF A3 7251 0.0 72.06679999999997
6453 opls_902 242 MF N13 7252 -0.407483 14.0067
6454 opls_145 242 MF C13 7253 0.682492 12.011
6455 opls_901 242 MF N23 7254 -0.299758 14.0067
6456 opls_157 242 MF C3 7255 0.024689 12.011
6457 opls_154 242 MF O3 7256 0.0 15.9994
6458 opls_156 242 MF H031 7258 0.0 1.008
6459 opls_156 242 MF H032 7259 0.0 1.008
6460 opls_910 242 MF H11 7260 0.0 1.008
6461 A 243 MF A1 7261 0.0 72.06679999999997
6462 opls_902 243 MF N11 7262 -0.407377 14.0067
6463 opls_145 243 MF C11 7263 0.682493 12.011
6464 opls_901 243 MF N21 7264 -0.299731 14.0067
6465 opls_157 243 MF C1 7265 0.024669 12.011
6466 opls_154 243 MF O1 7266 0.0 15.9994
6467 opls_155 243 MF H01 7267 0.0 1.008
6468 opls_156 243 MF H011 7268 0.0 1.008
6469 opls_156 243 MF H012 7269 0.0 1.008
6470 opls_910 243 MF H21 7270 0.0 1.008
6471 A 243 MF A2 7271 0.0 72.06679999999997
6472 opls_902 243 MF N12 7272 -0.407374 14.0067
6473 opls_145 243 MF C12 7273 0.682437 12.011
6474 opls_901 243 MF N22 7274 -0.299729 14.0067
6475 opls_157 243 MF C2 7275 0.024672 12.011
6476 opls_154 243 MF O2 7276 0.0 15.9994
6477 opls_155 243 MF H02 7277 0.0 1.008
6478 opls_156 243 MF H021 7278 0.0 1.008
6479 opls_156 243 MF H022 7279 0.0 1.008
6480 opls_910 243 MF H31 7280 0.0 1.008
6481 A 243 MF A3 7281 0.0 72.06679999999997
6482 opls_902 243 MF N13 7282 -0.407483 14.0067
6483 opls_145 243 MF C13 7283 0.682492 12.011
6484 opls_901 243 MF N23 7284 -0.299758 14.0067
6485 opls_157 243 MF C3 7285 0.024689 12.011
6486 opls_154 243 MF O3 7286 0.0 15.9994
6487 opls_156 243 MF H031 7288 0.0 1.008
6488 opls_156 243 MF H032 7289 0.0 1.008
6489 opls_910 243 MF H11 7290 0.0 1.008
6490 A 244 MF A1 7291 0.0 72.06679999999997
6491 opls_902 244 MF N11 7292 -0.407377 14.0067
6492 opls_145 244 MF C11 7293 0.682493 12.011
6493 opls_901 244 MF N21 7294 -0.299731 14.0067
6494 opls_157 244 MF C1 7295 0.024669 12.011
6495 opls_156 244 MF H011 7298 0.0 1.008
6496 opls_156 244 MF H012 7299 0.0 1.008
6497 opls_910 244 MF H21 7300 0.0 1.008
6498 A 244 MF A2 7301 0.0 72.06679999999997
6499 opls_902 244 MF N12 7302 -0.407374 14.0067
6500 opls_145 244 MF C12 7303 0.682437 12.011
6501 opls_901 244 MF N22 7304 -0.299729 14.0067
6502 opls_157 244 MF C2 7305 0.024672 12.011
6503 opls_154 244 MF O2 7306 0.0 15.9994
6504 opls_156 244 MF H021 7308 0.0 1.008
6505 opls_156 244 MF H022 7309 0.0 1.008
6506 opls_910 244 MF H31 7310 0.0 1.008
6507 A 244 MF A3 7311 0.0 72.06679999999997
6508 opls_902 244 MF N13 7312 -0.407483 14.0067
6509 opls_145 244 MF C13 7313 0.682492 12.011
6510 opls_901 244 MF N23 7314 -0.299758 14.0067
6511 opls_157 244 MF C3 7315 0.024689 12.011
6512 opls_154 244 MF O3 7316 0.0 15.9994
6513 opls_156 244 MF H031 7318 0.0 1.008
6514 opls_156 244 MF H032 7319 0.0 1.008
6515 opls_910 244 MF H11 7320 0.0 1.008
6516 A 245 MF A1 7321 0.0 72.06679999999997
6517 opls_902 245 MF N11 7322 -0.407377 14.0067
6518 opls_145 245 MF C11 7323 0.682493 12.011
6519 opls_901 245 MF N21 7324 -0.299731 14.0067
6520 opls_157 245 MF C1 7325 0.024669 12.011
6521 opls_156 245 MF H011 7328 0.0 1.008
6522 opls_156 245 MF H012 7329 0.0 1.008
6523 opls_910 245 MF H21 7330 0.0 1.008
6524 A 245 MF A2 7331 0.0 72.06679999999997
6525 opls_902 245 MF N12 7332 -0.407374 14.0067
6526 opls_145 245 MF C12 7333 0.682437 12.011
6527 opls_901 245 MF N22 7334 -0.299729 14.0067
6528 opls_157 245 MF C2 7335 0.024672 12.011
6529 opls_156 245 MF H021 7338 0.0 1.008
6530 opls_156 245 MF H022 7339 0.0 1.008
6531 opls_910 245 MF H31 7340 0.0 1.008
6532 A 245 MF A3 7341 0.0 72.06679999999997
6533 opls_902 245 MF N13 7342 -0.407483 14.0067
6534 opls_145 245 MF C13 7343 0.682492 12.011
6535 opls_901 245 MF N23 7344 -0.299758 14.0067
6536 opls_157 245 MF C3 7345 0.024689 12.011
6537 opls_154 245 MF O3 7346 0.0 15.9994
6538 opls_156 245 MF H031 7348 0.0 1.008
6539 opls_156 245 MF H032 7349 0.0 1.008
6540 opls_910 245 MF H11 7350 0.0 1.008
6541 A 246 MF A1 7351 0.0 72.06679999999997
6542 opls_902 246 MF N11 7352 -0.407377 14.0067
6543 opls_145 246 MF C11 7353 0.682493 12.011
6544 opls_901 246 MF N21 7354 -0.299731 14.0067
6545 opls_157 246 MF C1 7355 0.024669 12.011
6546 opls_156 246 MF H011 7358 0.0 1.008
6547 opls_156 246 MF H012 7359 0.0 1.008
6548 opls_910 246 MF H21 7360 0.0 1.008
6549 A 246 MF A2 7361 0.0 72.06679999999997
6550 opls_902 246 MF N12 7362 -0.407374 14.0067
6551 opls_145 246 MF C12 7363 0.682437 12.011
6552 opls_901 246 MF N22 7364 -0.299729 14.0067
6553 opls_157 246 MF C2 7365 0.024672 12.011
6554 opls_156 246 MF H021 7368 0.0 1.008
6555 opls_156 246 MF H022 7369 0.0 1.008
6556 opls_910 246 MF H31 7370 0.0 1.008
6557 A 246 MF A3 7371 0.0 72.06679999999997
6558 opls_902 246 MF N13 7372 -0.407483 14.0067
6559 opls_145 246 MF C13 7373 0.682492 12.011
6560 opls_901 246 MF N23 7374 -0.299758 14.0067
6561 opls_157 246 MF C3 7375 0.024689 12.011
6562 opls_154 246 MF O3 7376 0.0 15.9994
6563 opls_156 246 MF H031 7378 0.0 1.008
6564 opls_156 246 MF H032 7379 0.0 1.008
6565 opls_910 246 MF H11 7380 0.0 1.008
6566 A 247 MF A1 7381 0.0 72.06679999999997
6567 opls_902 247 MF N11 7382 -0.407377 14.0067
6568 opls_145 247 MF C11 7383 0.682493 12.011
6569 opls_901 247 MF N21 7384 -0.299731 14.0067
6570 opls_157 247 MF C1 7385 0.024669 12.011
6571 opls_154 247 MF O1 7386 0.0 15.9994
6572 opls_156 247 MF H011 7388 0.0 1.008
6573 opls_156 247 MF H012 7389 0.0 1.008
6574 opls_910 247 MF H21 7390 0.0 1.008
6575 A 247 MF A2 7391 0.0 72.06679999999997
6576 opls_902 247 MF N12 7392 -0.407374 14.0067
6577 opls_145 247 MF C12 7393 0.682437 12.011
6578 opls_901 247 MF N22 7394 -0.299729 14.0067
6579 opls_157 247 MF C2 7395 0.024672 12.011
6580 opls_156 247 MF H021 7398 0.0 1.008
6581 opls_156 247 MF H022 7399 0.0 1.008
6582 opls_910 247 MF H31 7400 0.0 1.008
6583 A 247 MF A3 7401 0.0 72.06679999999997
6584 opls_902 247 MF N13 7402 -0.407483 14.0067
6585 opls_145 247 MF C13 7403 0.682492 12.011
6586 opls_901 247 MF N23 7404 -0.299758 14.0067
6587 opls_157 247 MF C3 7405 0.024689 12.011
6588 opls_156 247 MF H031 7408 0.0 1.008
6589 opls_156 247 MF H032 7409 0.0 1.008
6590 opls_910 247 MF H11 7410 0.0 1.008
6591 A 248 MF A1 7411 0.0 72.06679999999997
6592 opls_902 248 MF N11 7412 -0.407377 14.0067
6593 opls_145 248 MF C11 7413 0.682493 12.011
6594 opls_901 248 MF N21 7414 -0.299731 14.0067
6595 opls_157 248 MF C1 7415 0.024669 12.011
6596 opls_154 248 MF O1 7416 0.0 15.9994
6597 opls_156 248 MF H011 7418 0.0 1.008
6598 opls_156 248 MF H012 7419 0.0 1.008
6599 opls_910 248 MF H21 7420 0.0 1.008
6600 A 248 MF A2 7421 0.0 72.06679999999997
6601 opls_902 248 MF N12 7422 -0.407374 14.0067
6602 opls_145 248 MF C12 7423 0.682437 12.011
6603 opls_901 248 MF N22 7424 -0.299729 14.0067
6604 opls_157 248 MF C2 7425 0.024672 12.011
6605 opls_156 248 MF H021 7428 0.0 1.008
6606 opls_156 248 MF H022 7429 0.0 1.008
6607 opls_910 248 MF H31 7430 0.0 1.008
6608 A 248 MF A3 7431 0.0 72.06679999999997
6609 opls_902 248 MF N13 7432 -0.407483 14.0067
6610 opls_145 248 MF C13 7433 0.682492 12.011
6611 opls_901 248 MF N23 7434 -0.299758 14.0067
6612 opls_157 248 MF C3 7435 0.024689 12.011
6613 opls_156 248 MF H031 7438 0.0 1.008
6614 opls_156 248 MF H032 7439 0.0 1.008
6615 opls_910 248 MF H11 7440 0.0 1.008
6616 A 249 MF A1 7441 0.0 72.06679999999997
6617 opls_902 249 MF N11 7442 -0.407377 14.0067
6618 opls_145 249 MF C11 7443 0.682493 12.011
6619 opls_901 249 MF N21 7444 -0.299731 14.0067
6620 opls_157 249 MF C1 7445 0.024669 12.011
6621 opls_156 249 MF H011 7448 0.0 1.008
6622 opls_156 249 MF H012 7449 0.0 1.008
6623 opls_910 249 MF H21 7450 0.0 1.008
6624 A 249 MF A2 7451 0.0 72.06679999999997
6625 opls_902 249 MF N12 7452 -0.407374 14.0067
6626 opls_145 249 MF C12 7453 0.682437 12.011
6627 opls_901 249 MF N22 7454 -0.299729 14.0067
6628 opls_157 249 MF C2 7455 0.024672 12.011
6629 opls_154 249 MF O2 7456 0.0 15.9994
6630 opls_156 249 MF H021 7458 0.0 1.008
6631 opls_156 249 MF H022 7459 0.0 1.008
6632 opls_910 249 MF H31 7460 0.0 1.008
6633 A 249 MF A3 7461 0.0 72.06679999999997
6634 opls_902 249 MF N13 7462 -0.407483 14.0067
6635 opls_145 249 MF C13 7463 0.682492 12.011
6636 opls_901 249 MF N23 7464 -0.299758 14.0067
6637 opls_157 249 MF C3 7465 0.024689 12.011
6638 opls_156 249 MF H031 7468 0.0 1.008
6639 opls_156 249 MF H032 7469 0.0 1.008
6640 opls_910 249 MF H11 7470 0.0 1.008
6641 A 250 MF A1 7471 0.0 72.06679999999997
6642 opls_902 250 MF N11 7472 -0.407377 14.0067
6643 opls_145 250 MF C11 7473 0.682493 12.011
6644 opls_901 250 MF N21 7474 -0.299731 14.0067
6645 opls_157 250 MF C1 7475 0.024669 12.011
6646 opls_156 250 MF H011 7478 0.0 1.008
6647 opls_156 250 MF H012 7479 0.0 1.008
6648 opls_910 250 MF H21 7480 0.0 1.008
6649 A 250 MF A2 7481 0.0 72.06679999999997
6650 opls_902 250 MF N12 7482 -0.407374 14.0067
6651 opls_145 250 MF C12 7483 0.682437 12.011
6652 opls_901 250 MF N22 7484 -0.299729 14.0067
6653 opls_157 250 MF C2 7485 0.024672 12.011
6654 opls_156 250 MF H021 7488 0.0 1.008
6655 opls_156 250 MF H022 7489 0.0 1.008
6656 opls_910 250 MF H31 7490 0.0 1.008
6657 A 250 MF A3 7491 0.0 72.06679999999997
6658 opls_902 250 MF N13 7492 -0.407483 14.0067
6659 opls_145 250 MF C13 7493 0.682492 12.011
6660 opls_901 250 MF N23 7494 -0.299758 14.0067
6661 opls_157 250 MF C3 7495 0.024689 12.011
6662 opls_156 250 MF H031 7498 0.0 1.008
6663 opls_156 250 MF H032 7499 0.0 1.008
6664 opls_910 250 MF H11 7500 0.0 1.008
6665 A 251 MF A1 7501 0.0 72.06679999999997
6666 opls_902 251 MF N11 7502 -0.407377 14.0067
6667 opls_145 251 MF C11 7503 0.682493 12.011
6668 opls_901 251 MF N21 7504 -0.299731 14.0067
6669 opls_157 251 MF C1 7505 0.024669 12.011
6670 opls_156 251 MF H011 7508 0.0 1.008
6671 opls_156 251 MF H012 7509 0.0 1.008
6672 opls_910 251 MF H21 7510 0.0 1.008
6673 A 251 MF A2 7511 0.0 72.06679999999997
6674 opls_902 251 MF N12 7512 -0.407374 14.0067
6675 opls_145 251 MF C12 7513 0.682437 12.011
6676 opls_901 251 MF N22 7514 -0.299729 14.0067
6677 opls_157 251 MF C2 7515 0.024672 12.011
6678 opls_156 251 MF H021 7518 0.0 1.008
6679 opls_156 251 MF H022 7519 0.0 1.008
6680 opls_910 251 MF H31 7520 0.0 1.008
6681 A 251 MF A3 7521 0.0 72.06679999999997
6682 opls_902 251 MF N13 7522 -0.407483 14.0067
6683 opls_145 251 MF C13 7523 0.682492 12.011
6684 opls_901 251 MF N23 7524 -0.299758 14.0067
6685 opls_157 251 MF C3 7525 0.024689 12.011
6686 opls_154 251 MF O3 7526 0.0 15.9994
6687 opls_156 251 MF H031 7528 0.0 1.008
6688 opls_156 251 MF H032 7529 0.0 1.008
6689 opls_910 251 MF H11 7530 0.0 1.008
6690 A 252 MF A1 7531 0.0 72.06679999999997
6691 opls_902 252 MF N11 7532 -0.407377 14.0067
6692 opls_145 252 MF C11 7533 0.682493 12.011
6693 opls_901 252 MF N21 7534 -0.299731 14.0067
6694 opls_157 252 MF C1 7535 0.024669 12.011
6695 opls_154 252 MF O1 7536 0.0 15.9994
6696 opls_156 252 MF H011 7538 0.0 1.008
6697 opls_156 252 MF H012 7539 0.0 1.008
6698 opls_910 252 MF H21 7540 0.0 1.008
6699 A 252 MF A2 7541 0.0 72.06679999999997
6700 opls_902 252 MF N12 7542 -0.407374 14.0067
6701 opls_145 252 MF C12 7543 0.682437 12.011
6702 opls_901 252 MF N22 7544 -0.299729 14.0067
6703 opls_157 252 MF C2 7545 0.024672 12.011
6704 opls_154 252 MF O2 7546 0.0 15.9994
6705 opls_156 252 MF H021 7548 0.0 1.008
6706 opls_156 252 MF H022 7549 0.0 1.008
6707 opls_910 252 MF H31 7550 0.0 1.008
6708 A 252 MF A3 7551 0.0 72.06679999999997
6709 opls_902 252 MF N13 7552 -0.407483 14.0067
6710 opls_145 252 MF C13 7553 0.682492 12.011
6711 opls_901 252 MF N23 7554 -0.299758 14.0067
6712 opls_157 252 MF C3 7555 0.024689 12.011
6713 opls_156 252 MF H031 7558 0.0 1.008
6714 opls_156 252 MF H032 7559 0.0 1.008
6715 opls_910 252 MF H11 7560 0.0 1.008
6716 A 253 MF A1 7561 0.0 72.06679999999997
6717 opls_902 253 MF N11 7562 -0.407377 14.0067
6718 opls_145 253 MF C11 7563 0.682493 12.011
6719 opls_901 253 MF N21 7564 -0.299731 14.0067
6720 opls_157 253 MF C1 7565 0.024669 12.011
6721 opls_154 253 MF O1 7566 0.0 15.9994
6722 opls_156 253 MF H011 7568 0.0 1.008
6723 opls_156 253 MF H012 7569 0.0 1.008
6724 opls_910 253 MF H21 7570 0.0 1.008
6725 A 253 MF A2 7571 0.0 72.06679999999997
6726 opls_902 253 MF N12 7572 -0.407374 14.0067
6727 opls_145 253 MF C12 7573 0.682437 12.011
6728 opls_901 253 MF N22 7574 -0.299729 14.0067
6729 opls_157 253 MF C2 7575 0.024672 12.011
6730 opls_154 253 MF O2 7576 0.0 15.9994
6731 opls_156 253 MF H021 7578 0.0 1.008
6732 opls_156 253 MF H022 7579 0.0 1.008
6733 opls_910 253 MF H31 7580 0.0 1.008
6734 A 253 MF A3 7581 0.0 72.06679999999997
6735 opls_902 253 MF N13 7582 -0.407483 14.0067
6736 opls_145 253 MF C13 7583 0.682492 12.011
6737 opls_901 253 MF N23 7584 -0.299758 14.0067
6738 opls_157 253 MF C3 7585 0.024689 12.011
6739 opls_156 253 MF H031 7588 0.0 1.008
6740 opls_156 253 MF H032 7589 0.0 1.008
6741 opls_910 253 MF H11 7590 0.0 1.008
6742 A 254 MF A1 7591 0.0 72.06679999999997
6743 opls_902 254 MF N11 7592 -0.407377 14.0067
6744 opls_145 254 MF C11 7593 0.682493 12.011
6745 opls_901 254 MF N21 7594 -0.299731 14.0067
6746 opls_157 254 MF C1 7595 0.024669 12.011
6747 opls_156 254 MF H011 7598 0.0 1.008
6748 opls_156 254 MF H012 7599 0.0 1.008
6749 opls_910 254 MF H21 7600 0.0 1.008
6750 A 254 MF A2 7601 0.0 72.06679999999997
6751 opls_902 254 MF N12 7602 -0.407374 14.0067
6752 opls_145 254 MF C12 7603 0.682437 12.011
6753 opls_901 254 MF N22 7604 -0.299729 14.0067
6754 opls_157 254 MF C2 7605 0.024672 12.011
6755 opls_154 254 MF O2 7606 0.0 15.9994
6756 opls_156 254 MF H021 7608 0.0 1.008
6757 opls_156 254 MF H022 7609 0.0 1.008
6758 opls_910 254 MF H31 7610 0.0 1.008
6759 A 254 MF A3 7611 0.0 72.06679999999997
6760 opls_902 254 MF N13 7612 -0.407483 14.0067
6761 opls_145 254 MF C13 7613 0.682492 12.011
6762 opls_901 254 MF N23 7614 -0.299758 14.0067
6763 opls_157 254 MF C3 7615 0.024689 12.011
6764 opls_154 254 MF O3 7616 0.0 15.9994
6765 opls_156 254 MF H031 7618 0.0 1.008
6766 opls_156 254 MF H032 7619 0.0 1.008
6767 opls_910 254 MF H11 7620 0.0 1.008
6768 A 255 MF A1 7621 0.0 72.06679999999997
6769 opls_902 255 MF N11 7622 -0.407377 14.0067
6770 opls_145 255 MF C11 7623 0.682493 12.011
6771 opls_901 255 MF N21 7624 -0.299731 14.0067
6772 opls_157 255 MF C1 7625 0.024669 12.011
6773 opls_154 255 MF O1 7626 0.0 15.9994
6774 opls_156 255 MF H011 7628 0.0 1.008
6775 opls_156 255 MF H012 7629 0.0 1.008
6776 opls_910 255 MF H21 7630 0.0 1.008
6777 A 255 MF A2 7631 0.0 72.06679999999997
6778 opls_902 255 MF N12 7632 -0.407374 14.0067
6779 opls_145 255 MF C12 7633 0.682437 12.011
6780 opls_901 255 MF N22 7634 -0.299729 14.0067
6781 opls_157 255 MF C2 7635 0.024672 12.011
6782 opls_156 255 MF H021 7638 0.0 1.008
6783 opls_156 255 MF H022 7639 0.0 1.008
6784 opls_910 255 MF H31 7640 0.0 1.008
6785 A 255 MF A3 7641 0.0 72.06679999999997
6786 opls_902 255 MF N13 7642 -0.407483 14.0067
6787 opls_145 255 MF C13 7643 0.682492 12.011
6788 opls_901 255 MF N23 7644 -0.299758 14.0067
6789 opls_157 255 MF C3 7645 0.024689 12.011
6790 opls_156 255 MF H031 7648 0.0 1.008
6791 opls_156 255 MF H032 7649 0.0 1.008
6792 opls_910 255 MF H11 7650 0.0 1.008
6793 A 256 MF A1 7651 0.0 72.06679999999997
6794 opls_902 256 MF N11 7652 -0.407377 14.0067
6795 opls_145 256 MF C11 7653 0.682493 12.011
6796 opls_901 256 MF N21 7654 -0.299731 14.0067
6797 opls_157 256 MF C1 7655 0.024669 12.011
6798 opls_154 256 MF O1 7656 0.0 15.9994
6799 opls_156 256 MF H011 7658 0.0 1.008
6800 opls_156 256 MF H012 7659 0.0 1.008
6801 opls_910 256 MF H21 7660 0.0 1.008
6802 A 256 MF A2 7661 0.0 72.06679999999997
6803 opls_902 256 MF N12 7662 -0.407374 14.0067
6804 opls_145 256 MF C12 7663 0.682437 12.011
6805 opls_901 256 MF N22 7664 -0.299729 14.0067
6806 opls_157 256 MF C2 7665 0.024672 12.011
6807 opls_154 256 MF O2 7666 0.0 15.9994
6808 opls_156 256 MF H021 7668 0.0 1.008
6809 opls_156 256 MF H022 7669 0.0 1.008
6810 opls_910 256 MF H31 7670 0.0 1.008
6811 A 256 MF A3 7671 0.0 72.06679999999997
6812 opls_902 256 MF N13 7672 -0.407483 14.0067
6813 opls_145 256 MF C13 7673 0.682492 12.011
6814 opls_901 256 MF N23 7674 -0.299758 14.0067
6815 opls_157 256 MF C3 7675 0.024689 12.011
6816 opls_156 256 MF H031 7678 0.0 1.008
6817 opls_156 256 MF H032 7679 0.0 1.008
6818 opls_910 256 MF H11 7680 0.0 1.008
6819 A 257 MF A1 7681 0.0 72.06679999999997
6820 opls_902 257 MF N11 7682 -0.407377 14.0067
6821 opls_145 257 MF C11 7683 0.682493 12.011
6822 opls_901 257 MF N21 7684 -0.299731 14.0067
6823 opls_157 257 MF C1 7685 0.024669 12.011
6824 opls_154 257 MF O1 7686 0.0 15.9994
6825 opls_156 257 MF H011 7688 0.0 1.008
6826 opls_156 257 MF H012 7689 0.0 1.008
6827 opls_910 257 MF H21 7690 0.0 1.008
6828 A 257 MF A2 7691 0.0 72.06679999999997
6829 opls_902 257 MF N12 7692 -0.407374 14.0067
6830 opls_145 257 MF C12 7693 0.682437 12.011
6831 opls_901 257 MF N22 7694 -0.299729 14.0067
6832 opls_157 257 MF C2 7695 0.024672 12.011
6833 opls_154 257 MF O2 7696 0.0 15.9994
6834 opls_155 257 MF H02 7697 0.0 1.008
6835 opls_156 257 MF H021 7698 0.0 1.008
6836 opls_156 257 MF H022 7699 0.0 1.008
6837 opls_910 257 MF H31 7700 0.0 1.008
6838 A 257 MF A3 7701 0.0 72.06679999999997
6839 opls_902 257 MF N13 7702 -0.407483 14.0067
6840 opls_145 257 MF C13 7703 0.682492 12.011
6841 opls_901 257 MF N23 7704 -0.299758 14.0067
6842 opls_157 257 MF C3 7705 0.024689 12.011
6843 opls_156 257 MF H031 7708 0.0 1.008
6844 opls_156 257 MF H032 7709 0.0 1.008
6845 opls_910 257 MF H11 7710 0.0 1.008
6846 A 258 MF A1 7711 0.0 72.06679999999997
6847 opls_902 258 MF N11 7712 -0.407377 14.0067
6848 opls_145 258 MF C11 7713 0.682493 12.011
6849 opls_901 258 MF N21 7714 -0.299731 14.0067
6850 opls_157 258 MF C1 7715 0.024669 12.011
6851 opls_156 258 MF H011 7718 0.0 1.008
6852 opls_156 258 MF H012 7719 0.0 1.008
6853 opls_910 258 MF H21 7720 0.0 1.008
6854 A 258 MF A2 7721 0.0 72.06679999999997
6855 opls_902 258 MF N12 7722 -0.407374 14.0067
6856 opls_145 258 MF C12 7723 0.682437 12.011
6857 opls_901 258 MF N22 7724 -0.299729 14.0067
6858 opls_157 258 MF C2 7725 0.024672 12.011
6859 opls_156 258 MF H021 7728 0.0 1.008
6860 opls_156 258 MF H022 7729 0.0 1.008
6861 opls_910 258 MF H31 7730 0.0 1.008
6862 A 258 MF A3 7731 0.0 72.06679999999997
6863 opls_902 258 MF N13 7732 -0.407483 14.0067
6864 opls_145 258 MF C13 7733 0.682492 12.011
6865 opls_901 258 MF N23 7734 -0.299758 14.0067
6866 opls_157 258 MF C3 7735 0.024689 12.011
6867 opls_156 258 MF H031 7738 0.0 1.008
6868 opls_156 258 MF H032 7739 0.0 1.008
6869 opls_910 258 MF H11 7740 0.0 1.008
6870 A 259 MF A1 7741 0.0 72.06679999999997
6871 opls_902 259 MF N11 7742 -0.407377 14.0067
6872 opls_145 259 MF C11 7743 0.682493 12.011
6873 opls_901 259 MF N21 7744 -0.299731 14.0067
6874 opls_157 259 MF C1 7745 0.024669 12.011
6875 opls_154 259 MF O1 7746 0.0 15.9994
6876 opls_156 259 MF H011 7748 0.0 1.008
6877 opls_156 259 MF H012 7749 0.0 1.008
6878 opls_910 259 MF H21 7750 0.0 1.008
6879 A 259 MF A2 7751 0.0 72.06679999999997
6880 opls_902 259 MF N12 7752 -0.407374 14.0067
6881 opls_145 259 MF C12 7753 0.682437 12.011
6882 opls_901 259 MF N22 7754 -0.299729 14.0067
6883 opls_157 259 MF C2 7755 0.024672 12.011
6884 opls_154 259 MF O2 7756 0.0 15.9994
6885 opls_156 259 MF H021 7758 0.0 1.008
6886 opls_156 259 MF H022 7759 0.0 1.008
6887 opls_910 259 MF H31 7760 0.0 1.008
6888 A 259 MF A3 7761 0.0 72.06679999999997
6889 opls_902 259 MF N13 7762 -0.407483 14.0067
6890 opls_145 259 MF C13 7763 0.682492 12.011
6891 opls_901 259 MF N23 7764 -0.299758 14.0067
6892 opls_157 259 MF C3 7765 0.024689 12.011
6893 opls_154 259 MF O3 7766 0.0 15.9994
6894 opls_156 259 MF H031 7768 0.0 1.008
6895 opls_156 259 MF H032 7769 0.0 1.008
6896 opls_910 259 MF H11 7770 0.0 1.008
6897 A 260 MF A1 7771 0.0 72.06679999999997
6898 opls_902 260 MF N11 7772 -0.407377 14.0067
6899 opls_145 260 MF C11 7773 0.682493 12.011
6900 opls_901 260 MF N21 7774 -0.299731 14.0067
6901 opls_157 260 MF C1 7775 0.024669 12.011
6902 opls_156 260 MF H011 7778 0.0 1.008
6903 opls_156 260 MF H012 7779 0.0 1.008
6904 opls_910 260 MF H21 7780 0.0 1.008
6905 A 260 MF A2 7781 0.0 72.06679999999997
6906 opls_902 260 MF N12 7782 -0.407374 14.0067
6907 opls_145 260 MF C12 7783 0.682437 12.011
6908 opls_901 260 MF N22 7784 -0.299729 14.0067
6909 opls_157 260 MF C2 7785 0.024672 12.011
6910 opls_156 260 MF H021 7788 0.0 1.008
6911 opls_156 260 MF H022 7789 0.0 1.008
6912 opls_910 260 MF H31 7790 0.0 1.008
6913 A 260 MF A3 7791 0.0 72.06679999999997
6914 opls_902 260 MF N13 7792 -0.407483 14.0067
6915 opls_145 260 MF C13 7793 0.682492 12.011
6916 opls_901 260 MF N23 7794 -0.299758 14.0067
6917 opls_157 260 MF C3 7795 0.024689 12.011
6918 opls_156 260 MF H031 7798 0.0 1.008
6919 opls_156 260 MF H032 7799 0.0 1.008
6920 opls_910 260 MF H11 7800 0.0 1.008
6921 A 261 MF A1 7801 0.0 72.06679999999997
6922 opls_902 261 MF N11 7802 -0.407377 14.0067
6923 opls_145 261 MF C11 7803 0.682493 12.011
6924 opls_901 261 MF N21 7804 -0.299731 14.0067
6925 opls_157 261 MF C1 7805 0.024669 12.011
6926 opls_154 261 MF O1 7806 0.0 15.9994
6927 opls_156 261 MF H011 7808 0.0 1.008
6928 opls_156 261 MF H012 7809 0.0 1.008
6929 opls_910 261 MF H21 7810 0.0 1.008
6930 A 261 MF A2 7811 0.0 72.06679999999997
6931 opls_902 261 MF N12 7812 -0.407374 14.0067
6932 opls_145 261 MF C12 7813 0.682437 12.011
6933 opls_901 261 MF N22 7814 -0.299729 14.0067
6934 opls_157 261 MF C2 7815 0.024672 12.011
6935 opls_156 261 MF H021 7818 0.0 1.008
6936 opls_156 261 MF H022 7819 0.0 1.008
6937 opls_910 261 MF H31 7820 0.0 1.008
6938 A 261 MF A3 7821 0.0 72.06679999999997
6939 opls_902 261 MF N13 7822 -0.407483 14.0067
6940 opls_145 261 MF C13 7823 0.682492 12.011
6941 opls_901 261 MF N23 7824 -0.299758 14.0067
6942 opls_157 261 MF C3 7825 0.024689 12.011
6943 opls_154 261 MF O3 7826 0.0 15.9994
6944 opls_156 261 MF H031 7828 0.0 1.008
6945 opls_156 261 MF H032 7829 0.0 1.008
6946 opls_910 261 MF H11 7830 0.0 1.008
6947 A 262 MF A1 7831 0.0 72.06679999999997
6948 opls_902 262 MF N11 7832 -0.407377 14.0067
6949 opls_145 262 MF C11 7833 0.682493 12.011
6950 opls_901 262 MF N21 7834 -0.299731 14.0067
6951 opls_157 262 MF C1 7835 0.024669 12.011
6952 opls_154 262 MF O1 7836 0.0 15.9994
6953 opls_156 262 MF H011 7838 0.0 1.008
6954 opls_156 262 MF H012 7839 0.0 1.008
6955 opls_910 262 MF H21 7840 0.0 1.008
6956 A 262 MF A2 7841 0.0 72.06679999999997
6957 opls_902 262 MF N12 7842 -0.407374 14.0067
6958 opls_145 262 MF C12 7843 0.682437 12.011
6959 opls_901 262 MF N22 7844 -0.299729 14.0067
6960 opls_157 262 MF C2 7845 0.024672 12.011
6961 opls_156 262 MF H021 7848 0.0 1.008
6962 opls_156 262 MF H022 7849 0.0 1.008
6963 opls_910 262 MF H31 7850 0.0 1.008
6964 A 262 MF A3 7851 0.0 72.06679999999997
6965 opls_902 262 MF N13 7852 -0.407483 14.0067
6966 opls_145 262 MF C13 7853 0.682492 12.011
6967 opls_901 262 MF N23 7854 -0.299758 14.0067
6968 opls_157 262 MF C3 7855 0.024689 12.011
6969 opls_156 262 MF H031 7858 0.0 1.008
6970 opls_156 262 MF H032 7859 0.0 1.008
6971 opls_910 262 MF H11 7860 0.0 1.008
6972 A 263 MF A1 7861 0.0 72.06679999999997
6973 opls_902 263 MF N11 7862 -0.407377 14.0067
6974 opls_145 263 MF C11 7863 0.682493 12.011
6975 opls_901 263 MF N21 7864 -0.299731 14.0067
6976 opls_157 263 MF C1 7865 0.024669 12.011
6977 opls_154 263 MF O1 7866 0.0 15.9994
6978 opls_156 263 MF H011 7868 0.0 1.008
6979 opls_156 263 MF H012 7869 0.0 1.008
6980 opls_910 263 MF H21 7870 0.0 1.008
6981 A 263 MF A2 7871 0.0 72.06679999999997
6982 opls_902 263 MF N12 7872 -0.407374 14.0067
6983 opls_145 263 MF C12 7873 0.682437 12.011
6984 opls_901 263 MF N22 7874 -0.299729 14.0067
6985 opls_157 263 MF C2 7875 0.024672 12.011
6986 opls_156 263 MF H021 7878 0.0 1.008
6987 opls_156 263 MF H022 7879 0.0 1.008
6988 opls_910 263 MF H31 7880 0.0 1.008
6989 A 263 MF A3 7881 0.0 72.06679999999997
6990 opls_902 263 MF N13 7882 -0.407483 14.0067
6991 opls_145 263 MF C13 7883 0.682492 12.011
6992 opls_901 263 MF N23 7884 -0.299758 14.0067
6993 opls_157 263 MF C3 7885 0.024689 12.011
6994 opls_156 263 MF H031 7888 0.0 1.008
6995 opls_156 263 MF H032 7889 0.0 1.008
6996 opls_910 263 MF H11 7890 0.0 1.008
6997 A 264 MF A1 7891 0.0 72.06679999999997
6998 opls_902 264 MF N11 7892 -0.407377 14.0067
6999 opls_145 264 MF C11 7893 0.682493 12.011
7000 opls_901 264 MF N21 7894 -0.299731 14.0067
7001 opls_157 264 MF C1 7895 0.024669 12.011
7002 opls_154 264 MF O1 7896 0.0 15.9994
7003 opls_156 264 MF H011 7898 0.0 1.008
7004 opls_156 264 MF H012 7899 0.0 1.008
7005 opls_910 264 MF H21 7900 0.0 1.008
7006 A 264 MF A2 7901 0.0 72.06679999999997
7007 opls_902 264 MF N12 7902 -0.407374 14.0067
7008 opls_145 264 MF C12 7903 0.682437 12.011
7009 opls_901 264 MF N22 7904 -0.299729 14.0067
7010 opls_157 264 MF C2 7905 0.024672 12.011
7011 opls_154 264 MF O2 7906 0.0 15.9994
7012 opls_155 264 MF H02 7907 0.0 1.008
7013 opls_156 264 MF H021 7908 0.0 1.008
7014 opls_156 264 MF H022 7909 0.0 1.008
7015 opls_910 264 MF H31 7910 0.0 1.008
7016 A 264 MF A3 7911 0.0 72.06679999999997
7017 opls_902 264 MF N13 7912 -0.407483 14.0067
7018 opls_145 264 MF C13 7913 0.682492 12.011
7019 opls_901 264 MF N23 7914 -0.299758 14.0067
7020 opls_157 264 MF C3 7915 0.024689 12.011
7021 opls_154 264 MF O3 7916 0.0 15.9994
7022 opls_156 264 MF H031 7918 0.0 1.008
7023 opls_156 264 MF H032 7919 0.0 1.008
7024 opls_910 264 MF H11 7920 0.0 1.008
7025 A 265 MF A1 7921 0.0 72.06679999999997
7026 opls_902 265 MF N11 7922 -0.407377 14.0067
7027 opls_145 265 MF C11 7923 0.682493 12.011
7028 opls_901 265 MF N21 7924 -0.299731 14.0067
7029 opls_157 265 MF C1 7925 0.024669 12.011
7030 opls_154 265 MF O1 7926 0.0 15.9994
7031 opls_156 265 MF H011 7928 0.0 1.008
7032 opls_156 265 MF H012 7929 0.0 1.008
7033 opls_910 265 MF H21 7930 0.0 1.008
7034 A 265 MF A2 7931 0.0 72.06679999999997
7035 opls_902 265 MF N12 7932 -0.407374 14.0067
7036 opls_145 265 MF C12 7933 0.682437 12.011
7037 opls_901 265 MF N22 7934 -0.299729 14.0067
7038 opls_157 265 MF C2 7935 0.024672 12.011
7039 opls_154 265 MF O2 7936 0.0 15.9994
7040 opls_156 265 MF H021 7938 0.0 1.008
7041 opls_156 265 MF H022 7939 0.0 1.008
7042 opls_910 265 MF H31 7940 0.0 1.008
7043 A 265 MF A3 7941 0.0 72.06679999999997
7044 opls_902 265 MF N13 7942 -0.407483 14.0067
7045 opls_145 265 MF C13 7943 0.682492 12.011
7046 opls_901 265 MF N23 7944 -0.299758 14.0067
7047 opls_157 265 MF C3 7945 0.024689 12.011
7048 opls_154 265 MF O3 7946 0.0 15.9994
7049 opls_155 265 MF H03 7947 0.0 1.008
7050 opls_156 265 MF H031 7948 0.0 1.008
7051 opls_156 265 MF H032 7949 0.0 1.008
7052 opls_910 265 MF H11 7950 0.0 1.008
7053 A 266 MF A1 7951 0.0 72.06679999999997
7054 opls_902 266 MF N11 7952 -0.407377 14.0067
7055 opls_145 266 MF C11 7953 0.682493 12.011
7056 opls_901 266 MF N21 7954 -0.299731 14.0067
7057 opls_157 266 MF C1 7955 0.024669 12.011
7058 opls_156 266 MF H011 7958 0.0 1.008
7059 opls_156 266 MF H012 7959 0.0 1.008
7060 opls_910 266 MF H21 7960 0.0 1.008
7061 A 266 MF A2 7961 0.0 72.06679999999997
7062 opls_902 266 MF N12 7962 -0.407374 14.0067
7063 opls_145 266 MF C12 7963 0.682437 12.011
7064 opls_901 266 MF N22 7964 -0.299729 14.0067
7065 opls_157 266 MF C2 7965 0.024672 12.011
7066 opls_156 266 MF H021 7968 0.0 1.008
7067 opls_156 266 MF H022 7969 0.0 1.008
7068 opls_910 266 MF H31 7970 0.0 1.008
7069 A 266 MF A3 7971 0.0 72.06679999999997
7070 opls_902 266 MF N13 7972 -0.407483 14.0067
7071 opls_145 266 MF C13 7973 0.682492 12.011
7072 opls_901 266 MF N23 7974 -0.299758 14.0067
7073 opls_157 266 MF C3 7975 0.024689 12.011
7074 opls_156 266 MF H031 7978 0.0 1.008
7075 opls_156 266 MF H032 7979 0.0 1.008
7076 opls_910 266 MF H11 7980 0.0 1.008
7077 A 267 MF A1 7981 0.0 72.06679999999997
7078 opls_902 267 MF N11 7982 -0.407377 14.0067
7079 opls_145 267 MF C11 7983 0.682493 12.011
7080 opls_901 267 MF N21 7984 -0.299731 14.0067
7081 opls_157 267 MF C1 7985 0.024669 12.011
7082 opls_156 267 MF H011 7988 0.0 1.008
7083 opls_156 267 MF H012 7989 0.0 1.008
7084 opls_910 267 MF H21 7990 0.0 1.008
7085 A 267 MF A2 7991 0.0 72.06679999999997
7086 opls_902 267 MF N12 7992 -0.407374 14.0067
7087 opls_145 267 MF C12 7993 0.682437 12.011
7088 opls_901 267 MF N22 7994 -0.299729 14.0067
7089 opls_157 267 MF C2 7995 0.024672 12.011
7090 opls_154 267 MF O2 7996 0.0 15.9994
7091 opls_155 267 MF H02 7997 0.0 1.008
7092 opls_156 267 MF H021 7998 0.0 1.008
7093 opls_156 267 MF H022 7999 0.0 1.008
7094 opls_910 267 MF H31 8000 0.0 1.008
7095 A 267 MF A3 8001 0.0 72.06679999999997
7096 opls_902 267 MF N13 8002 -0.407483 14.0067
7097 opls_145 267 MF C13 8003 0.682492 12.011
7098 opls_901 267 MF N23 8004 -0.299758 14.0067
7099 opls_157 267 MF C3 8005 0.024689 12.011
7100 opls_154 267 MF O3 8006 0.0 15.9994
7101 opls_156 267 MF H031 8008 0.0 1.008
7102 opls_156 267 MF H032 8009 0.0 1.008
7103 opls_910 267 MF H11 8010 0.0 1.008
7104 A 268 MF A1 8011 0.0 72.06679999999997
7105 opls_902 268 MF N11 8012 -0.407377 14.0067
7106 opls_145 268 MF C11 8013 0.682493 12.011
7107 opls_901 268 MF N21 8014 -0.299731 14.0067
7108 opls_157 268 MF C1 8015 0.024669 12.011
7109 opls_154 268 MF O1 8016 0.0 15.9994
7110 opls_156 268 MF H011 8018 0.0 1.008
7111 opls_156 268 MF H012 8019 0.0 1.008
7112 opls_910 268 MF H21 8020 0.0 1.008
7113 A 268 MF A2 8021 0.0 72.06679999999997
7114 opls_902 268 MF N12 8022 -0.407374 14.0067
7115 opls_145 268 MF C12 8023 0.682437 12.011
7116 opls_901 268 MF N22 8024 -0.299729 14.0067
7117 opls_157 268 MF C2 8025 0.024672 12.011
7118 opls_156 268 MF H021 8028 0.0 1.008
7119 opls_156 268 MF H022 8029 0.0 1.008
7120 opls_910 268 MF H31 8030 0.0 1.008
7121 A 268 MF A3 8031 0.0 72.06679999999997
7122 opls_902 268 MF N13 8032 -0.407483 14.0067
7123 opls_145 268 MF C13 8033 0.682492 12.011
7124 opls_901 268 MF N23 8034 -0.299758 14.0067
7125 opls_157 268 MF C3 8035 0.024689 12.011
7126 opls_154 268 MF O3 8036 0.0 15.9994
7127 opls_156 268 MF H031 8038 0.0 1.008
7128 opls_156 268 MF H032 8039 0.0 1.008
7129 opls_910 268 MF H11 8040 0.0 1.008
7130 A 269 MF A1 8041 0.0 72.06679999999997
7131 opls_902 269 MF N11 8042 -0.407377 14.0067
7132 opls_145 269 MF C11 8043 0.682493 12.011
7133 opls_901 269 MF N21 8044 -0.299731 14.0067
7134 opls_157 269 MF C1 8045 0.024669 12.011
7135 opls_156 269 MF H011 8048 0.0 1.008
7136 opls_156 269 MF H012 8049 0.0 1.008
7137 opls_910 269 MF H21 8050 0.0 1.008
7138 A 269 MF A2 8051 0.0 72.06679999999997
7139 opls_902 269 MF N12 8052 -0.407374 14.0067
7140 opls_145 269 MF C12 8053 0.682437 12.011
7141 opls_901 269 MF N22 8054 -0.299729 14.0067
7142 opls_157 269 MF C2 8055 0.024672 12.011
7143 opls_156 269 MF H021 8058 0.0 1.008
7144 opls_156 269 MF H022 8059 0.0 1.008
7145 opls_910 269 MF H31 8060 0.0 1.008
7146 A 269 MF A3 8061 0.0 72.06679999999997
7147 opls_902 269 MF N13 8062 -0.407483 14.0067
7148 opls_145 269 MF C13 8063 0.682492 12.011
7149 opls_901 269 MF N23 8064 -0.299758 14.0067
7150 opls_157 269 MF C3 8065 0.024689 12.011
7151 opls_156 269 MF H031 8068 0.0 1.008
7152 opls_156 269 MF H032 8069 0.0 1.008
7153 opls_910 269 MF H11 8070 0.0 1.008
7154 A 270 MF A1 8071 0.0 72.06679999999997
7155 opls_902 270 MF N11 8072 -0.407377 14.0067
7156 opls_145 270 MF C11 8073 0.682493 12.011
7157 opls_901 270 MF N21 8074 -0.299731 14.0067
7158 opls_157 270 MF C1 8075 0.024669 12.011
7159 opls_154 270 MF O1 8076 0.0 15.9994
7160 opls_156 270 MF H011 8078 0.0 1.008
7161 opls_156 270 MF H012 8079 0.0 1.008
7162 opls_910 270 MF H21 8080 0.0 1.008
7163 A 270 MF A2 8081 0.0 72.06679999999997
7164 opls_902 270 MF N12 8082 -0.407374 14.0067
7165 opls_145 270 MF C12 8083 0.682437 12.011
7166 opls_901 270 MF N22 8084 -0.299729 14.0067
7167 opls_157 270 MF C2 8085 0.024672 12.011
7168 opls_154 270 MF O2 8086 0.0 15.9994
7169 opls_156 270 MF H021 8088 0.0 1.008
7170 opls_156 270 MF H022 8089 0.0 1.008
7171 opls_910 270 MF H31 8090 0.0 1.008
7172 A 270 MF A3 8091 0.0 72.06679999999997
7173 opls_902 270 MF N13 8092 -0.407483 14.0067
7174 opls_145 270 MF C13 8093 0.682492 12.011
7175 opls_901 270 MF N23 8094 -0.299758 14.0067
7176 opls_157 270 MF C3 8095 0.024689 12.011
7177 opls_154 270 MF O3 8096 0.0 15.9994
7178 opls_156 270 MF H031 8098 0.0 1.008
7179 opls_156 270 MF H032 8099 0.0 1.008
7180 opls_910 270 MF H11 8100 0.0 1.008
7181 A 271 MF A1 8101 0.0 72.06679999999997
7182 opls_902 271 MF N11 8102 -0.407377 14.0067
7183 opls_145 271 MF C11 8103 0.682493 12.011
7184 opls_901 271 MF N21 8104 -0.299731 14.0067
7185 opls_157 271 MF C1 8105 0.024669 12.011
7186 opls_154 271 MF O1 8106 0.0 15.9994
7187 opls_155 271 MF H01 8107 0.0 1.008
7188 opls_156 271 MF H011 8108 0.0 1.008
7189 opls_156 271 MF H012 8109 0.0 1.008
7190 opls_910 271 MF H21 8110 0.0 1.008
7191 A 271 MF A2 8111 0.0 72.06679999999997
7192 opls_902 271 MF N12 8112 -0.407374 14.0067
7193 opls_145 271 MF C12 8113 0.682437 12.011
7194 opls_901 271 MF N22 8114 -0.299729 14.0067
7195 opls_157 271 MF C2 8115 0.024672 12.011
7196 opls_156 271 MF H021 8118 0.0 1.008
7197 opls_156 271 MF H022 8119 0.0 1.008
7198 opls_910 271 MF H31 8120 0.0 1.008
7199 A 271 MF A3 8121 0.0 72.06679999999997
7200 opls_902 271 MF N13 8122 -0.407483 14.0067
7201 opls_145 271 MF C13 8123 0.682492 12.011
7202 opls_901 271 MF N23 8124 -0.299758 14.0067
7203 opls_157 271 MF C3 8125 0.024689 12.011
7204 opls_156 271 MF H031 8128 0.0 1.008
7205 opls_156 271 MF H032 8129 0.0 1.008
7206 opls_910 271 MF H11 8130 0.0 1.008
7207 A 272 MF A1 8131 0.0 72.06679999999997
7208 opls_902 272 MF N11 8132 -0.407377 14.0067
7209 opls_145 272 MF C11 8133 0.682493 12.011
7210 opls_901 272 MF N21 8134 -0.299731 14.0067
7211 opls_157 272 MF C1 8135 0.024669 12.011
7212 opls_156 272 MF H011 8138 0.0 1.008
7213 opls_156 272 MF H012 8139 0.0 1.008
7214 opls_910 272 MF H21 8140 0.0 1.008
7215 A 272 MF A2 8141 0.0 72.06679999999997
7216 opls_902 272 MF N12 8142 -0.407374 14.0067
7217 opls_145 272 MF C12 8143 0.682437 12.011
7218 opls_901 272 MF N22 8144 -0.299729 14.0067
7219 opls_157 272 MF C2 8145 0.024672 12.011
7220 opls_154 272 MF O2 8146 0.0 15.9994
7221 opls_156 272 MF H021 8148 0.0 1.008
7222 opls_156 272 MF H022 8149 0.0 1.008
7223 opls_910 272 MF H31 8150 0.0 1.008
7224 A 272 MF A3 8151 0.0 72.06679999999997
7225 opls_902 272 MF N13 8152 -0.407483 14.0067
7226 opls_145 272 MF C13 8153 0.682492 12.011
7227 opls_901 272 MF N23 8154 -0.299758 14.0067
7228 opls_157 272 MF C3 8155 0.024689 12.011
7229 opls_154 272 MF O3 8156 0.0 15.9994
7230 opls_156 272 MF H031 8158 0.0 1.008
7231 opls_156 272 MF H032 8159 0.0 1.008
7232 opls_910 272 MF H11 8160 0.0 1.008
7233 A 273 MF A1 8161 0.0 72.06679999999997
7234 opls_902 273 MF N11 8162 -0.407377 14.0067
7235 opls_145 273 MF C11 8163 0.682493 12.011
7236 opls_901 273 MF N21 8164 -0.299731 14.0067
7237 opls_157 273 MF C1 8165 0.024669 12.011
7238 opls_156 273 MF H011 8168 0.0 1.008
7239 opls_156 273 MF H012 8169 0.0 1.008
7240 opls_910 273 MF H21 8170 0.0 1.008
7241 A 273 MF A2 8171 0.0 72.06679999999997
7242 opls_902 273 MF N12 8172 -0.407374 14.0067
7243 opls_145 273 MF C12 8173 0.682437 12.011
7244 opls_901 273 MF N22 8174 -0.299729 14.0067
7245 opls_157 273 MF C2 8175 0.024672 12.011
7246 opls_156 273 MF H021 8178 0.0 1.008
7247 opls_156 273 MF H022 8179 0.0 1.008
7248 opls_910 273 MF H31 8180 0.0 1.008
7249 A 273 MF A3 8181 0.0 72.06679999999997
7250 opls_902 273 MF N13 8182 -0.407483 14.0067
7251 opls_145 273 MF C13 8183 0.682492 12.011
7252 opls_901 273 MF N23 8184 -0.299758 14.0067
7253 opls_157 273 MF C3 8185 0.024689 12.011
7254 opls_154 273 MF O3 8186 0.0 15.9994
7255 opls_155 273 MF H03 8187 0.0 1.008
7256 opls_156 273 MF H031 8188 0.0 1.008
7257 opls_156 273 MF H032 8189 0.0 1.008
7258 opls_910 273 MF H11 8190 0.0 1.008
7259 A 274 MF A1 8191 0.0 72.06679999999997
7260 opls_902 274 MF N11 8192 -0.407377 14.0067
7261 opls_145 274 MF C11 8193 0.682493 12.011
7262 opls_901 274 MF N21 8194 -0.299731 14.0067
7263 opls_157 274 MF C1 8195 0.024669 12.011
7264 opls_156 274 MF H011 8198 0.0 1.008
7265 opls_156 274 MF H012 8199 0.0 1.008
7266 opls_910 274 MF H21 8200 0.0 1.008
7267 A 274 MF A2 8201 0.0 72.06679999999997
7268 opls_902 274 MF N12 8202 -0.407374 14.0067
7269 opls_145 274 MF C12 8203 0.682437 12.011
7270 opls_901 274 MF N22 8204 -0.299729 14.0067
7271 opls_157 274 MF C2 8205 0.024672 12.011
7272 opls_156 274 MF H021 8208 0.0 1.008
7273 opls_156 274 MF H022 8209 0.0 1.008
7274 opls_910 274 MF H31 8210 0.0 1.008
7275 A 274 MF A3 8211 0.0 72.06679999999997
7276 opls_902 274 MF N13 8212 -0.407483 14.0067
7277 opls_145 274 MF C13 8213 0.682492 12.011
7278 opls_901 274 MF N23 8214 -0.299758 14.0067
7279 opls_157 274 MF C3 8215 0.024689 12.011
7280 opls_154 274 MF O3 8216 0.0 15.9994
7281 opls_156 274 MF H031 8218 0.0 1.008
7282 opls_156 274 MF H032 8219 0.0 1.008
7283 opls_910 274 MF H11 8220 0.0 1.008
7284 A 275 MF A1 8221 0.0 72.06679999999997
7285 opls_902 275 MF N11 8222 -0.407377 14.0067
7286 opls_145 275 MF C11 8223 0.682493 12.011
7287 opls_901 275 MF N21 8224 -0.299731 14.0067
7288 opls_157 275 MF C1 8225 0.024669 12.011
7289 opls_156 275 MF H011 8228 0.0 1.008
7290 opls_156 275 MF H012 8229 0.0 1.008
7291 opls_910 275 MF H21 8230 0.0 1.008
7292 A 275 MF A2 8231 0.0 72.06679999999997
7293 opls_902 275 MF N12 8232 -0.407374 14.0067
7294 opls_145 275 MF C12 8233 0.682437 12.011
7295 opls_901 275 MF N22 8234 -0.299729 14.0067
7296 opls_157 275 MF C2 8235 0.024672 12.011
7297 opls_154 275 MF O2 8236 0.0 15.9994
7298 opls_155 275 MF H02 8237 0.0 1.008
7299 opls_156 275 MF H021 8238 0.0 1.008
7300 opls_156 275 MF H022 8239 0.0 1.008
7301 opls_910 275 MF H31 8240 0.0 1.008
7302 A 275 MF A3 8241 0.0 72.06679999999997
7303 opls_902 275 MF N13 8242 -0.407483 14.0067
7304 opls_145 275 MF C13 8243 0.682492 12.011
7305 opls_901 275 MF N23 8244 -0.299758 14.0067
7306 opls_157 275 MF C3 8245 0.024689 12.011
7307 opls_154 275 MF O3 8246 0.0 15.9994
7308 opls_156 275 MF H031 8248 0.0 1.008
7309 opls_156 275 MF H032 8249 0.0 1.008
7310 opls_910 275 MF H11 8250 0.0 1.008
7311 A 276 MF A1 8251 0.0 72.06679999999997
7312 opls_902 276 MF N11 8252 -0.407377 14.0067
7313 opls_145 276 MF C11 8253 0.682493 12.011
7314 opls_901 276 MF N21 8254 -0.299731 14.0067
7315 opls_157 276 MF C1 8255 0.024669 12.011
7316 opls_154 276 MF O1 8256 0.0 15.9994
7317 opls_156 276 MF H011 8258 0.0 1.008
7318 opls_156 276 MF H012 8259 0.0 1.008
7319 opls_910 276 MF H21 8260 0.0 1.008
7320 A 276 MF A2 8261 0.0 72.06679999999997
7321 opls_902 276 MF N12 8262 -0.407374 14.0067
7322 opls_145 276 MF C12 8263 0.682437 12.011
7323 opls_901 276 MF N22 8264 -0.299729 14.0067
7324 opls_157 276 MF C2 8265 0.024672 12.011
7325 opls_154 276 MF O2 8266 0.0 15.9994
7326 opls_156 276 MF H021 8268 0.0 1.008
7327 opls_156 276 MF H022 8269 0.0 1.008
7328 opls_910 276 MF H31 8270 0.0 1.008
7329 A 276 MF A3 8271 0.0 72.06679999999997
7330 opls_902 276 MF N13 8272 -0.407483 14.0067
7331 opls_145 276 MF C13 8273 0.682492 12.011
7332 opls_901 276 MF N23 8274 -0.299758 14.0067
7333 opls_157 276 MF C3 8275 0.024689 12.011
7334 opls_154 276 MF O3 8276 0.0 15.9994
7335 opls_155 276 MF H03 8277 0.0 1.008
7336 opls_156 276 MF H031 8278 0.0 1.008
7337 opls_156 276 MF H032 8279 0.0 1.008
7338 opls_910 276 MF H11 8280 0.0 1.008
7339 A 277 MF A1 8281 0.0 72.06679999999997
7340 opls_902 277 MF N11 8282 -0.407377 14.0067
7341 opls_145 277 MF C11 8283 0.682493 12.011
7342 opls_901 277 MF N21 8284 -0.299731 14.0067
7343 opls_157 277 MF C1 8285 0.024669 12.011
7344 opls_156 277 MF H011 8288 0.0 1.008
7345 opls_156 277 MF H012 8289 0.0 1.008
7346 opls_910 277 MF H21 8290 0.0 1.008
7347 A 277 MF A2 8291 0.0 72.06679999999997
7348 opls_902 277 MF N12 8292 -0.407374 14.0067
7349 opls_145 277 MF C12 8293 0.682437 12.011
7350 opls_901 277 MF N22 8294 -0.299729 14.0067
7351 opls_157 277 MF C2 8295 0.024672 12.011
7352 opls_156 277 MF H021 8298 0.0 1.008
7353 opls_156 277 MF H022 8299 0.0 1.008
7354 opls_910 277 MF H31 8300 0.0 1.008
7355 A 277 MF A3 8301 0.0 72.06679999999997
7356 opls_902 277 MF N13 8302 -0.407483 14.0067
7357 opls_145 277 MF C13 8303 0.682492 12.011
7358 opls_901 277 MF N23 8304 -0.299758 14.0067
7359 opls_157 277 MF C3 8305 0.024689 12.011
7360 opls_156 277 MF H031 8308 0.0 1.008
7361 opls_156 277 MF H032 8309 0.0 1.008
7362 opls_910 277 MF H11 8310 0.0 1.008
7363 A 278 MF A1 8311 0.0 72.06679999999997
7364 opls_902 278 MF N11 8312 -0.407377 14.0067
7365 opls_145 278 MF C11 8313 0.682493 12.011
7366 opls_901 278 MF N21 8314 -0.299731 14.0067
7367 opls_157 278 MF C1 8315 0.024669 12.011
7368 opls_154 278 MF O1 8316 0.0 15.9994
7369 opls_156 278 MF H011 8318 0.0 1.008
7370 opls_156 278 MF H012 8319 0.0 1.008
7371 opls_910 278 MF H21 8320 0.0 1.008
7372 A 278 MF A2 8321 0.0 72.06679999999997
7373 opls_902 278 MF N12 8322 -0.407374 14.0067
7374 opls_145 278 MF C12 8323 0.682437 12.011
7375 opls_901 278 MF N22 8324 -0.299729 14.0067
7376 opls_157 278 MF C2 8325 0.024672 12.011
7377 opls_154 278 MF O2 8326 0.0 15.9994
7378 opls_155 278 MF H02 8327 0.0 1.008
7379 opls_156 278 MF H021 8328 0.0 1.008
7380 opls_156 278 MF H022 8329 0.0 1.008
7381 opls_910 278 MF H31 8330 0.0 1.008
7382 A 278 MF A3 8331 0.0 72.06679999999997
7383 opls_902 278 MF N13 8332 -0.407483 14.0067
7384 opls_145 278 MF C13 8333 0.682492 12.011
7385 opls_901 278 MF N23 8334 -0.299758 14.0067
7386 opls_157 278 MF C3 8335 0.024689 12.011
7387 opls_154 278 MF O3 8336 0.0 15.9994
7388 opls_156 278 MF H031 8338 0.0 1.008
7389 opls_156 278 MF H032 8339 0.0 1.008
7390 opls_910 278 MF H11 8340 0.0 1.008
7391 A 279 MF A1 8341 0.0 72.06679999999997
7392 opls_902 279 MF N11 8342 -0.407377 14.0067
7393 opls_145 279 MF C11 8343 0.682493 12.011
7394 opls_901 279 MF N21 8344 -0.299731 14.0067
7395 opls_157 279 MF C1 8345 0.024669 12.011
7396 opls_156 279 MF H011 8348 0.0 1.008
7397 opls_156 279 MF H012 8349 0.0 1.008
7398 opls_910 279 MF H21 8350 0.0 1.008
7399 A 279 MF A2 8351 0.0 72.06679999999997
7400 opls_902 279 MF N12 8352 -0.407374 14.0067
7401 opls_145 279 MF C12 8353 0.682437 12.011
7402 opls_901 279 MF N22 8354 -0.299729 14.0067
7403 opls_157 279 MF C2 8355 0.024672 12.011
7404 opls_156 279 MF H021 8358 0.0 1.008
7405 opls_156 279 MF H022 8359 0.0 1.008
7406 opls_910 279 MF H31 8360 0.0 1.008
7407 A 279 MF A3 8361 0.0 72.06679999999997
7408 opls_902 279 MF N13 8362 -0.407483 14.0067
7409 opls_145 279 MF C13 8363 0.682492 12.011
7410 opls_901 279 MF N23 8364 -0.299758 14.0067
7411 opls_157 279 MF C3 8365 0.024689 12.011
7412 opls_156 279 MF H031 8368 0.0 1.008
7413 opls_156 279 MF H032 8369 0.0 1.008
7414 opls_910 279 MF H11 8370 0.0 1.008
7415 A 280 MF A1 8371 0.0 72.06679999999997
7416 opls_902 280 MF N11 8372 -0.407377 14.0067
7417 opls_145 280 MF C11 8373 0.682493 12.011
7418 opls_901 280 MF N21 8374 -0.299731 14.0067
7419 opls_157 280 MF C1 8375 0.024669 12.011
7420 opls_156 280 MF H011 8378 0.0 1.008
7421 opls_156 280 MF H012 8379 0.0 1.008
7422 opls_910 280 MF H21 8380 0.0 1.008
7423 A 280 MF A2 8381 0.0 72.06679999999997
7424 opls_902 280 MF N12 8382 -0.407374 14.0067
7425 opls_145 280 MF C12 8383 0.682437 12.011
7426 opls_901 280 MF N22 8384 -0.299729 14.0067
7427 opls_157 280 MF C2 8385 0.024672 12.011
7428 opls_156 280 MF H021 8388 0.0 1.008
7429 opls_156 280 MF H022 8389 0.0 1.008
7430 opls_910 280 MF H31 8390 0.0 1.008
7431 A 280 MF A3 8391 0.0 72.06679999999997
7432 opls_902 280 MF N13 8392 -0.407483 14.0067
7433 opls_145 280 MF C13 8393 0.682492 12.011
7434 opls_901 280 MF N23 8394 -0.299758 14.0067
7435 opls_157 280 MF C3 8395 0.024689 12.011
7436 opls_156 280 MF H031 8398 0.0 1.008
7437 opls_156 280 MF H032 8399 0.0 1.008
7438 opls_910 280 MF H11 8400 0.0 1.008
7439 A 281 MF A1 8401 0.0 72.06679999999997
7440 opls_902 281 MF N11 8402 -0.407377 14.0067
7441 opls_145 281 MF C11 8403 0.682493 12.011
7442 opls_901 281 MF N21 8404 -0.299731 14.0067
7443 opls_157 281 MF C1 8405 0.024669 12.011
7444 opls_156 281 MF H011 8408 0.0 1.008
7445 opls_156 281 MF H012 8409 0.0 1.008
7446 opls_910 281 MF H21 8410 0.0 1.008
7447 A 281 MF A2 8411 0.0 72.06679999999997
7448 opls_902 281 MF N12 8412 -0.407374 14.0067
7449 opls_145 281 MF C12 8413 0.682437 12.011
7450 opls_901 281 MF N22 8414 -0.299729 14.0067
7451 opls_157 281 MF C2 8415 0.024672 12.011
7452 opls_154 281 MF O2 8416 0.0 15.9994
7453 opls_156 281 MF H021 8418 0.0 1.008
7454 opls_156 281 MF H022 8419 0.0 1.008
7455 opls_910 281 MF H31 8420 0.0 1.008
7456 A 281 MF A3 8421 0.0 72.06679999999997
7457 opls_902 281 MF N13 8422 -0.407483 14.0067
7458 opls_145 281 MF C13 8423 0.682492 12.011
7459 opls_901 281 MF N23 8424 -0.299758 14.0067
7460 opls_157 281 MF C3 8425 0.024689 12.011
7461 opls_154 281 MF O3 8426 0.0 15.9994
7462 opls_156 281 MF H031 8428 0.0 1.008
7463 opls_156 281 MF H032 8429 0.0 1.008
7464 opls_910 281 MF H11 8430 0.0 1.008
7465 A 282 MF A1 8431 0.0 72.06679999999997
7466 opls_902 282 MF N11 8432 -0.407377 14.0067
7467 opls_145 282 MF C11 8433 0.682493 12.011
7468 opls_901 282 MF N21 8434 -0.299731 14.0067
7469 opls_157 282 MF C1 8435 0.024669 12.011
7470 opls_156 282 MF H011 8438 0.0 1.008
7471 opls_156 282 MF H012 8439 0.0 1.008
7472 opls_910 282 MF H21 8440 0.0 1.008
7473 A 282 MF A2 8441 0.0 72.06679999999997
7474 opls_902 282 MF N12 8442 -0.407374 14.0067
7475 opls_145 282 MF C12 8443 0.682437 12.011
7476 opls_901 282 MF N22 8444 -0.299729 14.0067
7477 opls_157 282 MF C2 8445 0.024672 12.011
7478 opls_156 282 MF H021 8448 0.0 1.008
7479 opls_156 282 MF H022 8449 0.0 1.008
7480 opls_910 282 MF H31 8450 0.0 1.008
7481 A 282 MF A3 8451 0.0 72.06679999999997
7482 opls_902 282 MF N13 8452 -0.407483 14.0067
7483 opls_145 282 MF C13 8453 0.682492 12.011
7484 opls_901 282 MF N23 8454 -0.299758 14.0067
7485 opls_157 282 MF C3 8455 0.024689 12.011
7486 opls_154 282 MF O3 8456 0.0 15.9994
7487 opls_155 282 MF H03 8457 0.0 1.008
7488 opls_156 282 MF H031 8458 0.0 1.008
7489 opls_156 282 MF H032 8459 0.0 1.008
7490 opls_910 282 MF H11 8460 0.0 1.008
7491 A 283 MF A1 8461 0.0 72.06679999999997
7492 opls_902 283 MF N11 8462 -0.407377 14.0067
7493 opls_145 283 MF C11 8463 0.682493 12.011
7494 opls_901 283 MF N21 8464 -0.299731 14.0067
7495 opls_157 283 MF C1 8465 0.024669 12.011
7496 opls_154 283 MF O1 8466 0.0 15.9994
7497 opls_156 283 MF H011 8468 0.0 1.008
7498 opls_156 283 MF H012 8469 0.0 1.008
7499 opls_910 283 MF H21 8470 0.0 1.008
7500 A 283 MF A2 8471 0.0 72.06679999999997
7501 opls_902 283 MF N12 8472 -0.407374 14.0067
7502 opls_145 283 MF C12 8473 0.682437 12.011
7503 opls_901 283 MF N22 8474 -0.299729 14.0067
7504 opls_157 283 MF C2 8475 0.024672 12.011
7505 opls_156 283 MF H021 8478 0.0 1.008
7506 opls_156 283 MF H022 8479 0.0 1.008
7507 opls_910 283 MF H31 8480 0.0 1.008
7508 A 283 MF A3 8481 0.0 72.06679999999997
7509 opls_902 283 MF N13 8482 -0.407483 14.0067
7510 opls_145 283 MF C13 8483 0.682492 12.011
7511 opls_901 283 MF N23 8484 -0.299758 14.0067
7512 opls_157 283 MF C3 8485 0.024689 12.011
7513 opls_154 283 MF O3 8486 0.0 15.9994
7514 opls_156 283 MF H031 8488 0.0 1.008
7515 opls_156 283 MF H032 8489 0.0 1.008
7516 opls_910 283 MF H11 8490 0.0 1.008
7517 A 284 MF A1 8491 0.0 72.06679999999997
7518 opls_902 284 MF N11 8492 -0.407377 14.0067
7519 opls_145 284 MF C11 8493 0.682493 12.011
7520 opls_901 284 MF N21 8494 -0.299731 14.0067
7521 opls_157 284 MF C1 8495 0.024669 12.011
7522 opls_154 284 MF O1 8496 0.0 15.9994
7523 opls_156 284 MF H011 8498 0.0 1.008
7524 opls_156 284 MF H012 8499 0.0 1.008
7525 opls_910 284 MF H21 8500 0.0 1.008
7526 A 284 MF A2 8501 0.0 72.06679999999997
7527 opls_902 284 MF N12 8502 -0.407374 14.0067
7528 opls_145 284 MF C12 8503 0.682437 12.011
7529 opls_901 284 MF N22 8504 -0.299729 14.0067
7530 opls_157 284 MF C2 8505 0.024672 12.011
7531 opls_156 284 MF H021 8508 0.0 1.008
7532 opls_156 284 MF H022 8509 0.0 1.008
7533 opls_910 284 MF H31 8510 0.0 1.008
7534 A 284 MF A3 8511 0.0 72.06679999999997
7535 opls_902 284 MF N13 8512 -0.407483 14.0067
7536 opls_145 284 MF C13 8513 0.682492 12.011
7537 opls_901 284 MF N23 8514 -0.299758 14.0067
7538 opls_157 284 MF C3 8515 0.024689 12.011
7539 opls_154 284 MF O3 8516 0.0 15.9994
7540 opls_156 284 MF H031 8518 0.0 1.008
7541 opls_156 284 MF H032 8519 0.0 1.008
7542 opls_910 284 MF H11 8520 0.0 1.008
7543 A 285 MF A1 8521 0.0 72.06679999999997
7544 opls_902 285 MF N11 8522 -0.407377 14.0067
7545 opls_145 285 MF C11 8523 0.682493 12.011
7546 opls_901 285 MF N21 8524 -0.299731 14.0067
7547 opls_157 285 MF C1 8525 0.024669 12.011
7548 opls_156 285 MF H011 8528 0.0 1.008
7549 opls_156 285 MF H012 8529 0.0 1.008
7550 opls_910 285 MF H21 8530 0.0 1.008
7551 A 285 MF A2 8531 0.0 72.06679999999997
7552 opls_902 285 MF N12 8532 -0.407374 14.0067
7553 opls_145 285 MF C12 8533 0.682437 12.011
7554 opls_901 285 MF N22 8534 -0.299729 14.0067
7555 opls_157 285 MF C2 8535 0.024672 12.011
7556 opls_154 285 MF O2 8536 0.0 15.9994
7557 opls_156 285 MF H021 8538 0.0 1.008
7558 opls_156 285 MF H022 8539 0.0 1.008
7559 opls_910 285 MF H31 8540 0.0 1.008
7560 A 285 MF A3 8541 0.0 72.06679999999997
7561 opls_902 285 MF N13 8542 -0.407483 14.0067
7562 opls_145 285 MF C13 8543 0.682492 12.011
7563 opls_901 285 MF N23 8544 -0.299758 14.0067
7564 opls_157 285 MF C3 8545 0.024689 12.011
7565 opls_154 285 MF O3 8546 0.0 15.9994
7566 opls_156 285 MF H031 8548 0.0 1.008
7567 opls_156 285 MF H032 8549 0.0 1.008
7568 opls_910 285 MF H11 8550 0.0 1.008
7569 A 286 MF A1 8551 0.0 72.06679999999997
7570 opls_902 286 MF N11 8552 -0.407377 14.0067
7571 opls_145 286 MF C11 8553 0.682493 12.011
7572 opls_901 286 MF N21 8554 -0.299731 14.0067
7573 opls_157 286 MF C1 8555 0.024669 12.011
7574 opls_154 286 MF O1 8556 0.0 15.9994
7575 opls_156 286 MF H011 8558 0.0 1.008
7576 opls_156 286 MF H012 8559 0.0 1.008
7577 opls_910 286 MF H21 8560 0.0 1.008
7578 A 286 MF A2 8561 0.0 72.06679999999997
7579 opls_902 286 MF N12 8562 -0.407374 14.0067
7580 opls_145 286 MF C12 8563 0.682437 12.011
7581 opls_901 286 MF N22 8564 -0.299729 14.0067
7582 opls_157 286 MF C2 8565 0.024672 12.011
7583 opls_154 286 MF O2 8566 0.0 15.9994
7584 opls_156 286 MF H021 8568 0.0 1.008
7585 opls_156 286 MF H022 8569 0.0 1.008
7586 opls_910 286 MF H31 8570 0.0 1.008
7587 A 286 MF A3 8571 0.0 72.06679999999997
7588 opls_902 286 MF N13 8572 -0.407483 14.0067
7589 opls_145 286 MF C13 8573 0.682492 12.011
7590 opls_901 286 MF N23 8574 -0.299758 14.0067
7591 opls_157 286 MF C3 8575 0.024689 12.011
7592 opls_154 286 MF O3 8576 0.0 15.9994
7593 opls_155 286 MF H03 8577 0.0 1.008
7594 opls_156 286 MF H031 8578 0.0 1.008
7595 opls_156 286 MF H032 8579 0.0 1.008
7596 opls_910 286 MF H11 8580 0.0 1.008
7597 A 287 MF A1 8581 0.0 72.06679999999997
7598 opls_902 287 MF N11 8582 -0.407377 14.0067
7599 opls_145 287 MF C11 8583 0.682493 12.011
7600 opls_901 287 MF N21 8584 -0.299731 14.0067
7601 opls_157 287 MF C1 8585 0.024669 12.011
7602 opls_156 287 MF H011 8588 0.0 1.008
7603 opls_156 287 MF H012 8589 0.0 1.008
7604 opls_910 287 MF H21 8590 0.0 1.008
7605 A 287 MF A2 8591 0.0 72.06679999999997
7606 opls_902 287 MF N12 8592 -0.407374 14.0067
7607 opls_145 287 MF C12 8593 0.682437 12.011
7608 opls_901 287 MF N22 8594 -0.299729 14.0067
7609 opls_157 287 MF C2 8595 0.024672 12.011
7610 opls_156 287 MF H021 8598 0.0 1.008
7611 opls_156 287 MF H022 8599 0.0 1.008
7612 opls_910 287 MF H31 8600 0.0 1.008
7613 A 287 MF A3 8601 0.0 72.06679999999997
7614 opls_902 287 MF N13 8602 -0.407483 14.0067
7615 opls_145 287 MF C13 8603 0.682492 12.011
7616 opls_901 287 MF N23 8604 -0.299758 14.0067
7617 opls_157 287 MF C3 8605 0.024689 12.011
7618 opls_156 287 MF H031 8608 0.0 1.008
7619 opls_156 287 MF H032 8609 0.0 1.008
7620 opls_910 287 MF H11 8610 0.0 1.008
7621 A 288 MF A1 8611 0.0 72.06679999999997
7622 opls_902 288 MF N11 8612 -0.407377 14.0067
7623 opls_145 288 MF C11 8613 0.682493 12.011
7624 opls_901 288 MF N21 8614 -0.299731 14.0067
7625 opls_157 288 MF C1 8615 0.024669 12.011
7626 opls_154 288 MF O1 8616 0.0 15.9994
7627 opls_155 288 MF H01 8617 0.0 1.008
7628 opls_156 288 MF H011 8618 0.0 1.008
7629 opls_156 288 MF H012 8619 0.0 1.008
7630 opls_910 288 MF H21 8620 0.0 1.008
7631 A 288 MF A2 8621 0.0 72.06679999999997
7632 opls_902 288 MF N12 8622 -0.407374 14.0067
7633 opls_145 288 MF C12 8623 0.682437 12.011
7634 opls_901 288 MF N22 8624 -0.299729 14.0067
7635 opls_157 288 MF C2 8625 0.024672 12.011
7636 opls_154 288 MF O2 8626 0.0 15.9994
7637 opls_156 288 MF H021 8628 0.0 1.008
7638 opls_156 288 MF H022 8629 0.0 1.008
7639 opls_910 288 MF H31 8630 0.0 1.008
7640 A 288 MF A3 8631 0.0 72.06679999999997
7641 opls_902 288 MF N13 8632 -0.407483 14.0067
7642 opls_145 288 MF C13 8633 0.682492 12.011
7643 opls_901 288 MF N23 8634 -0.299758 14.0067
7644 opls_157 288 MF C3 8635 0.024689 12.011
7645 opls_154 288 MF O3 8636 0.0 15.9994
7646 opls_156 288 MF H031 8638 0.0 1.008
7647 opls_156 288 MF H032 8639 0.0 1.008
7648 opls_910 288 MF H11 8640 0.0 1.008
7649 A 289 MF A1 8641 0.0 72.06679999999997
7650 opls_902 289 MF N11 8642 -0.407377 14.0067
7651 opls_145 289 MF C11 8643 0.682493 12.011
7652 opls_901 289 MF N21 8644 -0.299731 14.0067
7653 opls_157 289 MF C1 8645 0.024669 12.011
7654 opls_156 289 MF H011 8648 0.0 1.008
7655 opls_156 289 MF H012 8649 0.0 1.008
7656 opls_910 289 MF H21 8650 0.0 1.008
7657 A 289 MF A2 8651 0.0 72.06679999999997
7658 opls_902 289 MF N12 8652 -0.407374 14.0067
7659 opls_145 289 MF C12 8653 0.682437 12.011
7660 opls_901 289 MF N22 8654 -0.299729 14.0067
7661 opls_157 289 MF C2 8655 0.024672 12.011
7662 opls_156 289 MF H021 8658 0.0 1.008
7663 opls_156 289 MF H022 8659 0.0 1.008
7664 opls_910 289 MF H31 8660 0.0 1.008
7665 A 289 MF A3 8661 0.0 72.06679999999997
7666 opls_902 289 MF N13 8662 -0.407483 14.0067
7667 opls_145 289 MF C13 8663 0.682492 12.011
7668 opls_901 289 MF N23 8664 -0.299758 14.0067
7669 opls_157 289 MF C3 8665 0.024689 12.011
7670 opls_154 289 MF O3 8666 0.0 15.9994
7671 opls_156 289 MF H031 8668 0.0 1.008
7672 opls_156 289 MF H032 8669 0.0 1.008
7673 opls_910 289 MF H11 8670 0.0 1.008
7674 A 290 MF A1 8671 0.0 72.06679999999997
7675 opls_902 290 MF N11 8672 -0.407377 14.0067
7676 opls_145 290 MF C11 8673 0.682493 12.011
7677 opls_901 290 MF N21 8674 -0.299731 14.0067
7678 opls_157 290 MF C1 8675 0.024669 12.011
7679 opls_156 290 MF H011 8678 0.0 1.008
7680 opls_156 290 MF H012 8679 0.0 1.008
7681 opls_910 290 MF H21 8680 0.0 1.008
7682 A 290 MF A2 8681 0.0 72.06679999999997
7683 opls_902 290 MF N12 8682 -0.407374 14.0067
7684 opls_145 290 MF C12 8683 0.682437 12.011
7685 opls_901 290 MF N22 8684 -0.299729 14.0067
7686 opls_157 290 MF C2 8685 0.024672 12.011
7687 opls_156 290 MF H021 8688 0.0 1.008
7688 opls_156 290 MF H022 8689 0.0 1.008
7689 opls_910 290 MF H31 8690 0.0 1.008
7690 A 290 MF A3 8691 0.0 72.06679999999997
7691 opls_902 290 MF N13 8692 -0.407483 14.0067
7692 opls_145 290 MF C13 8693 0.682492 12.011
7693 opls_901 290 MF N23 8694 -0.299758 14.0067
7694 opls_157 290 MF C3 8695 0.024689 12.011
7695 opls_154 290 MF O3 8696 0.0 15.9994
7696 opls_156 290 MF H031 8698 0.0 1.008
7697 opls_156 290 MF H032 8699 0.0 1.008
7698 opls_910 290 MF H11 8700 0.0 1.008
7699 A 291 MF A1 8701 0.0 72.06679999999997
7700 opls_902 291 MF N11 8702 -0.407377 14.0067
7701 opls_145 291 MF C11 8703 0.682493 12.011
7702 opls_901 291 MF N21 8704 -0.299731 14.0067
7703 opls_157 291 MF C1 8705 0.024669 12.011
7704 opls_154 291 MF O1 8706 0.0 15.9994
7705 opls_156 291 MF H011 8708 0.0 1.008
7706 opls_156 291 MF H012 8709 0.0 1.008
7707 opls_910 291 MF H21 8710 0.0 1.008
7708 A 291 MF A2 8711 0.0 72.06679999999997
7709 opls_902 291 MF N12 8712 -0.407374 14.0067
7710 opls_145 291 MF C12 8713 0.682437 12.011
7711 opls_901 291 MF N22 8714 -0.299729 14.0067
7712 opls_157 291 MF C2 8715 0.024672 12.011
7713 opls_154 291 MF O2 8716 0.0 15.9994
7714 opls_156 291 MF H021 8718 0.0 1.008
7715 opls_156 291 MF H022 8719 0.0 1.008
7716 opls_910 291 MF H31 8720 0.0 1.008
7717 A 291 MF A3 8721 0.0 72.06679999999997
7718 opls_902 291 MF N13 8722 -0.407483 14.0067
7719 opls_145 291 MF C13 8723 0.682492 12.011
7720 opls_901 291 MF N23 8724 -0.299758 14.0067
7721 opls_157 291 MF C3 8725 0.024689 12.011
7722 opls_156 291 MF H031 8728 0.0 1.008
7723 opls_156 291 MF H032 8729 0.0 1.008
7724 opls_910 291 MF H11 8730 0.0 1.008
7725 A 292 MF A1 8731 0.0 72.06679999999997
7726 opls_902 292 MF N11 8732 -0.407377 14.0067
7727 opls_145 292 MF C11 8733 0.682493 12.011
7728 opls_901 292 MF N21 8734 -0.299731 14.0067
7729 opls_157 292 MF C1 8735 0.024669 12.011
7730 opls_154 292 MF O1 8736 0.0 15.9994
7731 opls_156 292 MF H011 8738 0.0 1.008
7732 opls_156 292 MF H012 8739 0.0 1.008
7733 opls_910 292 MF H21 8740 0.0 1.008
7734 A 292 MF A2 8741 0.0 72.06679999999997
7735 opls_902 292 MF N12 8742 -0.407374 14.0067
7736 opls_145 292 MF C12 8743 0.682437 12.011
7737 opls_901 292 MF N22 8744 -0.299729 14.0067
7738 opls_157 292 MF C2 8745 0.024672 12.011
7739 opls_154 292 MF O2 8746 0.0 15.9994
7740 opls_156 292 MF H021 8748 0.0 1.008
7741 opls_156 292 MF H022 8749 0.0 1.008
7742 opls_910 292 MF H31 8750 0.0 1.008
7743 A 292 MF A3 8751 0.0 72.06679999999997
7744 opls_902 292 MF N13 8752 -0.407483 14.0067
7745 opls_145 292 MF C13 8753 0.682492 12.011
7746 opls_901 292 MF N23 8754 -0.299758 14.0067
7747 opls_157 292 MF C3 8755 0.024689 12.011
7748 opls_156 292 MF H031 8758 0.0 1.008
7749 opls_156 292 MF H032 8759 0.0 1.008
7750 opls_910 292 MF H11 8760 0.0 1.008
7751 A 293 MF A1 8761 0.0 72.06679999999997
7752 opls_902 293 MF N11 8762 -0.407377 14.0067
7753 opls_145 293 MF C11 8763 0.682493 12.011
7754 opls_901 293 MF N21 8764 -0.299731 14.0067
7755 opls_157 293 MF C1 8765 0.024669 12.011
7756 opls_156 293 MF H011 8768 0.0 1.008
7757 opls_156 293 MF H012 8769 0.0 1.008
7758 opls_910 293 MF H21 8770 0.0 1.008
7759 A 293 MF A2 8771 0.0 72.06679999999997
7760 opls_902 293 MF N12 8772 -0.407374 14.0067
7761 opls_145 293 MF C12 8773 0.682437 12.011
7762 opls_901 293 MF N22 8774 -0.299729 14.0067
7763 opls_157 293 MF C2 8775 0.024672 12.011
7764 opls_154 293 MF O2 8776 0.0 15.9994
7765 opls_156 293 MF H021 8778 0.0 1.008
7766 opls_156 293 MF H022 8779 0.0 1.008
7767 opls_910 293 MF H31 8780 0.0 1.008
7768 A 293 MF A3 8781 0.0 72.06679999999997
7769 opls_902 293 MF N13 8782 -0.407483 14.0067
7770 opls_145 293 MF C13 8783 0.682492 12.011
7771 opls_901 293 MF N23 8784 -0.299758 14.0067
7772 opls_157 293 MF C3 8785 0.024689 12.011
7773 opls_156 293 MF H031 8788 0.0 1.008
7774 opls_156 293 MF H032 8789 0.0 1.008
7775 opls_910 293 MF H11 8790 0.0 1.008
7776 A 294 MF A1 8791 0.0 72.06679999999997
7777 opls_902 294 MF N11 8792 -0.407377 14.0067
7778 opls_145 294 MF C11 8793 0.682493 12.011
7779 opls_901 294 MF N21 8794 -0.299731 14.0067
7780 opls_157 294 MF C1 8795 0.024669 12.011
7781 opls_154 294 MF O1 8796 0.0 15.9994
7782 opls_155 294 MF H01 8797 0.0 1.008
7783 opls_156 294 MF H011 8798 0.0 1.008
7784 opls_156 294 MF H012 8799 0.0 1.008
7785 opls_910 294 MF H21 8800 0.0 1.008
7786 A 294 MF A2 8801 0.0 72.06679999999997
7787 opls_902 294 MF N12 8802 -0.407374 14.0067
7788 opls_145 294 MF C12 8803 0.682437 12.011
7789 opls_901 294 MF N22 8804 -0.299729 14.0067
7790 opls_157 294 MF C2 8805 0.024672 12.011
7791 opls_154 294 MF O2 8806 0.0 15.9994
7792 opls_156 294 MF H021 8808 0.0 1.008
7793 opls_156 294 MF H022 8809 0.0 1.008
7794 opls_910 294 MF H31 8810 0.0 1.008
7795 A 294 MF A3 8811 0.0 72.06679999999997
7796 opls_902 294 MF N13 8812 -0.407483 14.0067
7797 opls_145 294 MF C13 8813 0.682492 12.011
7798 opls_901 294 MF N23 8814 -0.299758 14.0067
7799 opls_157 294 MF C3 8815 0.024689 12.011
7800 opls_156 294 MF H031 8818 0.0 1.008
7801 opls_156 294 MF H032 8819 0.0 1.008
7802 opls_910 294 MF H11 8820 0.0 1.008
7803 A 295 MF A1 8821 0.0 72.06679999999997
7804 opls_902 295 MF N11 8822 -0.407377 14.0067
7805 opls_145 295 MF C11 8823 0.682493 12.011
7806 opls_901 295 MF N21 8824 -0.299731 14.0067
7807 opls_157 295 MF C1 8825 0.024669 12.011
7808 opls_156 295 MF H011 8828 0.0 1.008
7809 opls_156 295 MF H012 8829 0.0 1.008
7810 opls_910 295 MF H21 8830 0.0 1.008
7811 A 295 MF A2 8831 0.0 72.06679999999997
7812 opls_902 295 MF N12 8832 -0.407374 14.0067
7813 opls_145 295 MF C12 8833 0.682437 12.011
7814 opls_901 295 MF N22 8834 -0.299729 14.0067
7815 opls_157 295 MF C2 8835 0.024672 12.011
7816 opls_154 295 MF O2 8836 0.0 15.9994
7817 opls_156 295 MF H021 8838 0.0 1.008
7818 opls_156 295 MF H022 8839 0.0 1.008
7819 opls_910 295 MF H31 8840 0.0 1.008
7820 A 295 MF A3 8841 0.0 72.06679999999997
7821 opls_902 295 MF N13 8842 -0.407483 14.0067
7822 opls_145 295 MF C13 8843 0.682492 12.011
7823 opls_901 295 MF N23 8844 -0.299758 14.0067
7824 opls_157 295 MF C3 8845 0.024689 12.011
7825 opls_156 295 MF H031 8848 0.0 1.008
7826 opls_156 295 MF H032 8849 0.0 1.008
7827 opls_910 295 MF H11 8850 0.0 1.008
7828 A 296 MF A1 8851 0.0 72.06679999999997
7829 opls_902 296 MF N11 8852 -0.407377 14.0067
7830 opls_145 296 MF C11 8853 0.682493 12.011
7831 opls_901 296 MF N21 8854 -0.299731 14.0067
7832 opls_157 296 MF C1 8855 0.024669 12.011
7833 opls_156 296 MF H011 8858 0.0 1.008
7834 opls_156 296 MF H012 8859 0.0 1.008
7835 opls_910 296 MF H21 8860 0.0 1.008
7836 A 296 MF A2 8861 0.0 72.06679999999997
7837 opls_902 296 MF N12 8862 -0.407374 14.0067
7838 opls_145 296 MF C12 8863 0.682437 12.011
7839 opls_901 296 MF N22 8864 -0.299729 14.0067
7840 opls_157 296 MF C2 8865 0.024672 12.011
7841 opls_156 296 MF H021 8868 0.0 1.008
7842 opls_156 296 MF H022 8869 0.0 1.008
7843 opls_910 296 MF H31 8870 0.0 1.008
7844 A 296 MF A3 8871 0.0 72.06679999999997
7845 opls_902 296 MF N13 8872 -0.407483 14.0067
7846 opls_145 296 MF C13 8873 0.682492 12.011
7847 opls_901 296 MF N23 8874 -0.299758 14.0067
7848 opls_157 296 MF C3 8875 0.024689 12.011
7849 opls_154 296 MF O3 8876 0.0 15.9994
7850 opls_156 296 MF H031 8878 0.0 1.008
7851 opls_156 296 MF H032 8879 0.0 1.008
7852 opls_910 296 MF H11 8880 0.0 1.008
7853 A 297 MF A1 8881 0.0 72.06679999999997
7854 opls_902 297 MF N11 8882 -0.407377 14.0067
7855 opls_145 297 MF C11 8883 0.682493 12.011
7856 opls_901 297 MF N21 8884 -0.299731 14.0067
7857 opls_157 297 MF C1 8885 0.024669 12.011
7858 opls_154 297 MF O1 8886 0.0 15.9994
7859 opls_156 297 MF H011 8888 0.0 1.008
7860 opls_156 297 MF H012 8889 0.0 1.008
7861 opls_910 297 MF H21 8890 0.0 1.008
7862 A 297 MF A2 8891 0.0 72.06679999999997
7863 opls_902 297 MF N12 8892 -0.407374 14.0067
7864 opls_145 297 MF C12 8893 0.682437 12.011
7865 opls_901 297 MF N22 8894 -0.299729 14.0067
7866 opls_157 297 MF C2 8895 0.024672 12.011
7867 opls_156 297 MF H021 8898 0.0 1.008
7868 opls_156 297 MF H022 8899 0.0 1.008
7869 opls_910 297 MF H31 8900 0.0 1.008
7870 A 297 MF A3 8901 0.0 72.06679999999997
7871 opls_902 297 MF N13 8902 -0.407483 14.0067
7872 opls_145 297 MF C13 8903 0.682492 12.011
7873 opls_901 297 MF N23 8904 -0.299758 14.0067
7874 opls_157 297 MF C3 8905 0.024689 12.011
7875 opls_156 297 MF H031 8908 0.0 1.008
7876 opls_156 297 MF H032 8909 0.0 1.008
7877 opls_910 297 MF H11 8910 0.0 1.008
7878 A 298 MF A1 8911 0.0 72.06679999999997
7879 opls_902 298 MF N11 8912 -0.407377 14.0067
7880 opls_145 298 MF C11 8913 0.682493 12.011
7881 opls_901 298 MF N21 8914 -0.299731 14.0067
7882 opls_157 298 MF C1 8915 0.024669 12.011
7883 opls_156 298 MF H011 8918 0.0 1.008
7884 opls_156 298 MF H012 8919 0.0 1.008
7885 opls_910 298 MF H21 8920 0.0 1.008
7886 A 298 MF A2 8921 0.0 72.06679999999997
7887 opls_902 298 MF N12 8922 -0.407374 14.0067
7888 opls_145 298 MF C12 8923 0.682437 12.011
7889 opls_901 298 MF N22 8924 -0.299729 14.0067
7890 opls_157 298 MF C2 8925 0.024672 12.011
7891 opls_156 298 MF H021 8928 0.0 1.008
7892 opls_156 298 MF H022 8929 0.0 1.008
7893 opls_910 298 MF H31 8930 0.0 1.008
7894 A 298 MF A3 8931 0.0 72.06679999999997
7895 opls_902 298 MF N13 8932 -0.407483 14.0067
7896 opls_145 298 MF C13 8933 0.682492 12.011
7897 opls_901 298 MF N23 8934 -0.299758 14.0067
7898 opls_157 298 MF C3 8935 0.024689 12.011
7899 opls_154 298 MF O3 8936 0.0 15.9994
7900 opls_156 298 MF H031 8938 0.0 1.008
7901 opls_156 298 MF H032 8939 0.0 1.008
7902 opls_910 298 MF H11 8940 0.0 1.008
7903 A 299 MF A1 8941 0.0 72.06679999999997
7904 opls_902 299 MF N11 8942 -0.407377 14.0067
7905 opls_145 299 MF C11 8943 0.682493 12.011
7906 opls_901 299 MF N21 8944 -0.299731 14.0067
7907 opls_157 299 MF C1 8945 0.024669 12.011
7908 opls_156 299 MF H011 8948 0.0 1.008
7909 opls_156 299 MF H012 8949 0.0 1.008
7910 opls_910 299 MF H21 8950 0.0 1.008
7911 A 299 MF A2 8951 0.0 72.06679999999997
7912 opls_902 299 MF N12 8952 -0.407374 14.0067
7913 opls_145 299 MF C12 8953 0.682437 12.011
7914 opls_901 299 MF N22 8954 -0.299729 14.0067
7915 opls_157 299 MF C2 8955 0.024672 12.011
7916 opls_154 299 MF O2 8956 0.0 15.9994
7917 opls_156 299 MF H021 8958 0.0 1.008
7918 opls_156 299 MF H022 8959 0.0 1.008
7919 opls_910 299 MF H31 8960 0.0 1.008
7920 A 299 MF A3 8961 0.0 72.06679999999997
7921 opls_902 299 MF N13 8962 -0.407483 14.0067
7922 opls_145 299 MF C13 8963 0.682492 12.011
7923 opls_901 299 MF N23 8964 -0.299758 14.0067
7924 opls_157 299 MF C3 8965 0.024689 12.011
7925 opls_154 299 MF O3 8966 0.0 15.9994
7926 opls_156 299 MF H031 8968 0.0 1.008
7927 opls_156 299 MF H032 8969 0.0 1.008
7928 opls_910 299 MF H11 8970 0.0 1.008
7929 A 300 MF A1 8971 0.0 72.06679999999997
7930 opls_902 300 MF N11 8972 -0.407377 14.0067
7931 opls_145 300 MF C11 8973 0.682493 12.011
7932 opls_901 300 MF N21 8974 -0.299731 14.0067
7933 opls_157 300 MF C1 8975 0.024669 12.011
7934 opls_156 300 MF H011 8978 0.0 1.008
7935 opls_156 300 MF H012 8979 0.0 1.008
7936 opls_910 300 MF H21 8980 0.0 1.008
7937 A 300 MF A2 8981 0.0 72.06679999999997
7938 opls_902 300 MF N12 8982 -0.407374 14.0067
7939 opls_145 300 MF C12 8983 0.682437 12.011
7940 opls_901 300 MF N22 8984 -0.299729 14.0067
7941 opls_157 300 MF C2 8985 0.024672 12.011
7942 opls_154 300 MF O2 8986 0.0 15.9994
7943 opls_155 300 MF H02 8987 0.0 1.008
7944 opls_156 300 MF H021 8988 0.0 1.008
7945 opls_156 300 MF H022 8989 0.0 1.008
7946 opls_910 300 MF H31 8990 0.0 1.008
7947 A 300 MF A3 8991 0.0 72.06679999999997
7948 opls_902 300 MF N13 8992 -0.407483 14.0067
7949 opls_145 300 MF C13 8993 0.682492 12.011
7950 opls_901 300 MF N23 8994 -0.299758 14.0067
7951 opls_157 300 MF C3 8995 0.024689 12.011
7952 opls_156 300 MF H031 8998 0.0 1.008
7953 opls_156 300 MF H032 8999 0.0 1.008
7954 opls_910 300 MF H11 9000 0.0 1.008
7955 A 301 MF A1 9001 0.0 72.06679999999997
7956 opls_902 301 MF N11 9002 -0.407377 14.0067
7957 opls_145 301 MF C11 9003 0.682493 12.011
7958 opls_901 301 MF N21 9004 -0.299731 14.0067
7959 opls_157 301 MF C1 9005 0.024669 12.011
7960 opls_154 301 MF O1 9006 0.0 15.9994
7961 opls_156 301 MF H011 9008 0.0 1.008
7962 opls_156 301 MF H012 9009 0.0 1.008
7963 opls_910 301 MF H21 9010 0.0 1.008
7964 A 301 MF A2 9011 0.0 72.06679999999997
7965 opls_902 301 MF N12 9012 -0.407374 14.0067
7966 opls_145 301 MF C12 9013 0.682437 12.011
7967 opls_901 301 MF N22 9014 -0.299729 14.0067
7968 opls_157 301 MF C2 9015 0.024672 12.011
7969 opls_154 301 MF O2 9016 0.0 15.9994
7970 opls_155 301 MF H02 9017 0.0 1.008
7971 opls_156 301 MF H021 9018 0.0 1.008
7972 opls_156 301 MF H022 9019 0.0 1.008
7973 opls_910 301 MF H31 9020 0.0 1.008
7974 A 301 MF A3 9021 0.0 72.06679999999997
7975 opls_902 301 MF N13 9022 -0.407483 14.0067
7976 opls_145 301 MF C13 9023 0.682492 12.011
7977 opls_901 301 MF N23 9024 -0.299758 14.0067
7978 opls_157 301 MF C3 9025 0.024689 12.011
7979 opls_154 301 MF O3 9026 0.0 15.9994
7980 opls_156 301 MF H031 9028 0.0 1.008
7981 opls_156 301 MF H032 9029 0.0 1.008
7982 opls_910 301 MF H11 9030 0.0 1.008
7983 A 302 MF A1 9031 0.0 72.06679999999997
7984 opls_902 302 MF N11 9032 -0.407377 14.0067
7985 opls_145 302 MF C11 9033 0.682493 12.011
7986 opls_901 302 MF N21 9034 -0.299731 14.0067
7987 opls_157 302 MF C1 9035 0.024669 12.011
7988 opls_154 302 MF O1 9036 0.0 15.9994
7989 opls_155 302 MF H01 9037 0.0 1.008
7990 opls_156 302 MF H011 9038 0.0 1.008
7991 opls_156 302 MF H012 9039 0.0 1.008
7992 opls_910 302 MF H21 9040 0.0 1.008
7993 A 302 MF A2 9041 0.0 72.06679999999997
7994 opls_902 302 MF N12 9042 -0.407374 14.0067
7995 opls_145 302 MF C12 9043 0.682437 12.011
7996 opls_901 302 MF N22 9044 -0.299729 14.0067
7997 opls_157 302 MF C2 9045 0.024672 12.011
7998 opls_154 302 MF O2 9046 0.0 15.9994
7999 opls_156 302 MF H021 9048 0.0 1.008
8000 opls_156 302 MF H022 9049 0.0 1.008
8001 opls_910 302 MF H31 9050 0.0 1.008
8002 A 302 MF A3 9051 0.0 72.06679999999997
8003 opls_902 302 MF N13 9052 -0.407483 14.0067
8004 opls_145 302 MF C13 9053 0.682492 12.011
8005 opls_901 302 MF N23 9054 -0.299758 14.0067
8006 opls_157 302 MF C3 9055 0.024689 12.011
8007 opls_156 302 MF H031 9058 0.0 1.008
8008 opls_156 302 MF H032 9059 0.0 1.008
8009 opls_910 302 MF H11 9060 0.0 1.008
8010 A 303 MF A1 9061 0.0 72.06679999999997
8011 opls_902 303 MF N11 9062 -0.407377 14.0067
8012 opls_145 303 MF C11 9063 0.682493 12.011
8013 opls_901 303 MF N21 9064 -0.299731 14.0067
8014 opls_157 303 MF C1 9065 0.024669 12.011
8015 opls_154 303 MF O1 9066 0.0 15.9994
8016 opls_156 303 MF H011 9068 0.0 1.008
8017 opls_156 303 MF H012 9069 0.0 1.008
8018 opls_910 303 MF H21 9070 0.0 1.008
8019 A 303 MF A2 9071 0.0 72.06679999999997
8020 opls_902 303 MF N12 9072 -0.407374 14.0067
8021 opls_145 303 MF C12 9073 0.682437 12.011
8022 opls_901 303 MF N22 9074 -0.299729 14.0067
8023 opls_157 303 MF C2 9075 0.024672 12.011
8024 opls_154 303 MF O2 9076 0.0 15.9994
8025 opls_156 303 MF H021 9078 0.0 1.008
8026 opls_156 303 MF H022 9079 0.0 1.008
8027 opls_910 303 MF H31 9080 0.0 1.008
8028 A 303 MF A3 9081 0.0 72.06679999999997
8029 opls_902 303 MF N13 9082 -0.407483 14.0067
8030 opls_145 303 MF C13 9083 0.682492 12.011
8031 opls_901 303 MF N23 9084 -0.299758 14.0067
8032 opls_157 303 MF C3 9085 0.024689 12.011
8033 opls_154 303 MF O3 9086 0.0 15.9994
8034 opls_156 303 MF H031 9088 0.0 1.008
8035 opls_156 303 MF H032 9089 0.0 1.008
8036 opls_910 303 MF H11 9090 0.0 1.008
8037 A 304 MF A1 9091 0.0 72.06679999999997
8038 opls_902 304 MF N11 9092 -0.407377 14.0067
8039 opls_145 304 MF C11 9093 0.682493 12.011
8040 opls_901 304 MF N21 9094 -0.299731 14.0067
8041 opls_157 304 MF C1 9095 0.024669 12.011
8042 opls_154 304 MF O1 9096 0.0 15.9994
8043 opls_156 304 MF H011 9098 0.0 1.008
8044 opls_156 304 MF H012 9099 0.0 1.008
8045 opls_910 304 MF H21 9100 0.0 1.008
8046 A 304 MF A2 9101 0.0 72.06679999999997
8047 opls_902 304 MF N12 9102 -0.407374 14.0067
8048 opls_145 304 MF C12 9103 0.682437 12.011
8049 opls_901 304 MF N22 9104 -0.299729 14.0067
8050 opls_157 304 MF C2 9105 0.024672 12.011
8051 opls_156 304 MF H021 9108 0.0 1.008
8052 opls_156 304 MF H022 9109 0.0 1.008
8053 opls_910 304 MF H31 9110 0.0 1.008
8054 A 304 MF A3 9111 0.0 72.06679999999997
8055 opls_902 304 MF N13 9112 -0.407483 14.0067
8056 opls_145 304 MF C13 9113 0.682492 12.011
8057 opls_901 304 MF N23 9114 -0.299758 14.0067
8058 opls_157 304 MF C3 9115 0.024689 12.011
8059 opls_156 304 MF H031 9118 0.0 1.008
8060 opls_156 304 MF H032 9119 0.0 1.008
8061 opls_910 304 MF H11 9120 0.0 1.008
8062 A 305 MF A1 9121 0.0 72.06679999999997
8063 opls_902 305 MF N11 9122 -0.407377 14.0067
8064 opls_145 305 MF C11 9123 0.682493 12.011
8065 opls_901 305 MF N21 9124 -0.299731 14.0067
8066 opls_157 305 MF C1 9125 0.024669 12.011
8067 opls_156 305 MF H011 9128 0.0 1.008
8068 opls_156 305 MF H012 9129 0.0 1.008
8069 opls_910 305 MF H21 9130 0.0 1.008
8070 A 305 MF A2 9131 0.0 72.06679999999997
8071 opls_902 305 MF N12 9132 -0.407374 14.0067
8072 opls_145 305 MF C12 9133 0.682437 12.011
8073 opls_901 305 MF N22 9134 -0.299729 14.0067
8074 opls_157 305 MF C2 9135 0.024672 12.011
8075 opls_154 305 MF O2 9136 0.0 15.9994
8076 opls_156 305 MF H021 9138 0.0 1.008
8077 opls_156 305 MF H022 9139 0.0 1.008
8078 opls_910 305 MF H31 9140 0.0 1.008
8079 A 305 MF A3 9141 0.0 72.06679999999997
8080 opls_902 305 MF N13 9142 -0.407483 14.0067
8081 opls_145 305 MF C13 9143 0.682492 12.011
8082 opls_901 305 MF N23 9144 -0.299758 14.0067
8083 opls_157 305 MF C3 9145 0.024689 12.011
8084 opls_156 305 MF H031 9148 0.0 1.008
8085 opls_156 305 MF H032 9149 0.0 1.008
8086 opls_910 305 MF H11 9150 0.0 1.008
8087 A 306 MF A1 9151 0.0 72.06679999999997
8088 opls_902 306 MF N11 9152 -0.407377 14.0067
8089 opls_145 306 MF C11 9153 0.682493 12.011
8090 opls_901 306 MF N21 9154 -0.299731 14.0067
8091 opls_157 306 MF C1 9155 0.024669 12.011
8092 opls_156 306 MF H011 9158 0.0 1.008
8093 opls_156 306 MF H012 9159 0.0 1.008
8094 opls_910 306 MF H21 9160 0.0 1.008
8095 A 306 MF A2 9161 0.0 72.06679999999997
8096 opls_902 306 MF N12 9162 -0.407374 14.0067
8097 opls_145 306 MF C12 9163 0.682437 12.011
8098 opls_901 306 MF N22 9164 -0.299729 14.0067
8099 opls_157 306 MF C2 9165 0.024672 12.011
8100 opls_154 306 MF O2 9166 0.0 15.9994
8101 opls_156 306 MF H021 9168 0.0 1.008
8102 opls_156 306 MF H022 9169 0.0 1.008
8103 opls_910 306 MF H31 9170 0.0 1.008
8104 A 306 MF A3 9171 0.0 72.06679999999997
8105 opls_902 306 MF N13 9172 -0.407483 14.0067
8106 opls_145 306 MF C13 9173 0.682492 12.011
8107 opls_901 306 MF N23 9174 -0.299758 14.0067
8108 opls_157 306 MF C3 9175 0.024689 12.011
8109 opls_154 306 MF O3 9176 0.0 15.9994
8110 opls_156 306 MF H031 9178 0.0 1.008
8111 opls_156 306 MF H032 9179 0.0 1.008
8112 opls_910 306 MF H11 9180 0.0 1.008
8113 A 307 MF A1 9181 0.0 72.06679999999997
8114 opls_902 307 MF N11 9182 -0.407377 14.0067
8115 opls_145 307 MF C11 9183 0.682493 12.011
8116 opls_901 307 MF N21 9184 -0.299731 14.0067
8117 opls_157 307 MF C1 9185 0.024669 12.011
8118 opls_154 307 MF O1 9186 0.0 15.9994
8119 opls_156 307 MF H011 9188 0.0 1.008
8120 opls_156 307 MF H012 9189 0.0 1.008
8121 opls_910 307 MF H21 9190 0.0 1.008
8122 A 307 MF A2 9191 0.0 72.06679999999997
8123 opls_902 307 MF N12 9192 -0.407374 14.0067
8124 opls_145 307 MF C12 9193 0.682437 12.011
8125 opls_901 307 MF N22 9194 -0.299729 14.0067
8126 opls_157 307 MF C2 9195 0.024672 12.011
8127 opls_154 307 MF O2 9196 0.0 15.9994
8128 opls_155 307 MF H02 9197 0.0 1.008
8129 opls_156 307 MF H021 9198 0.0 1.008
8130 opls_156 307 MF H022 9199 0.0 1.008
8131 opls_910 307 MF H31 9200 0.0 1.008
8132 A 307 MF A3 9201 0.0 72.06679999999997
8133 opls_902 307 MF N13 9202 -0.407483 14.0067
8134 opls_145 307 MF C13 9203 0.682492 12.011
8135 opls_901 307 MF N23 9204 -0.299758 14.0067
8136 opls_157 307 MF C3 9205 0.024689 12.011
8137 opls_156 307 MF H031 9208 0.0 1.008
8138 opls_156 307 MF H032 9209 0.0 1.008
8139 opls_910 307 MF H11 9210 0.0 1.008
8140 A 308 MF A1 9211 0.0 72.06679999999997
8141 opls_902 308 MF N11 9212 -0.407377 14.0067
8142 opls_145 308 MF C11 9213 0.682493 12.011
8143 opls_901 308 MF N21 9214 -0.299731 14.0067
8144 opls_157 308 MF C1 9215 0.024669 12.011
8145 opls_156 308 MF H011 9218 0.0 1.008
8146 opls_156 308 MF H012 9219 0.0 1.008
8147 opls_910 308 MF H21 9220 0.0 1.008
8148 A 308 MF A2 9221 0.0 72.06679999999997
8149 opls_902 308 MF N12 9222 -0.407374 14.0067
8150 opls_145 308 MF C12 9223 0.682437 12.011
8151 opls_901 308 MF N22 9224 -0.299729 14.0067
8152 opls_157 308 MF C2 9225 0.024672 12.011
8153 opls_154 308 MF O2 9226 0.0 15.9994
8154 opls_156 308 MF H021 9228 0.0 1.008
8155 opls_156 308 MF H022 9229 0.0 1.008
8156 opls_910 308 MF H31 9230 0.0 1.008
8157 A 308 MF A3 9231 0.0 72.06679999999997
8158 opls_902 308 MF N13 9232 -0.407483 14.0067
8159 opls_145 308 MF C13 9233 0.682492 12.011
8160 opls_901 308 MF N23 9234 -0.299758 14.0067
8161 opls_157 308 MF C3 9235 0.024689 12.011
8162 opls_156 308 MF H031 9238 0.0 1.008
8163 opls_156 308 MF H032 9239 0.0 1.008
8164 opls_910 308 MF H11 9240 0.0 1.008
8165 A 309 MF A1 9241 0.0 72.06679999999997
8166 opls_902 309 MF N11 9242 -0.407377 14.0067
8167 opls_145 309 MF C11 9243 0.682493 12.011
8168 opls_901 309 MF N21 9244 -0.299731 14.0067
8169 opls_157 309 MF C1 9245 0.024669 12.011
8170 opls_156 309 MF H011 9248 0.0 1.008
8171 opls_156 309 MF H012 9249 0.0 1.008
8172 opls_910 309 MF H21 9250 0.0 1.008
8173 A 309 MF A2 9251 0.0 72.06679999999997
8174 opls_902 309 MF N12 9252 -0.407374 14.0067
8175 opls_145 309 MF C12 9253 0.682437 12.011
8176 opls_901 309 MF N22 9254 -0.299729 14.0067
8177 opls_157 309 MF C2 9255 0.024672 12.011
8178 opls_156 309 MF H021 9258 0.0 1.008
8179 opls_156 309 MF H022 9259 0.0 1.008
8180 opls_910 309 MF H31 9260 0.0 1.008
8181 A 309 MF A3 9261 0.0 72.06679999999997
8182 opls_902 309 MF N13 9262 -0.407483 14.0067
8183 opls_145 309 MF C13 9263 0.682492 12.011
8184 opls_901 309 MF N23 9264 -0.299758 14.0067
8185 opls_157 309 MF C3 9265 0.024689 12.011
8186 opls_156 309 MF H031 9268 0.0 1.008
8187 opls_156 309 MF H032 9269 0.0 1.008
8188 opls_910 309 MF H11 9270 0.0 1.008
8189 A 310 MF A1 9271 0.0 72.06679999999997
8190 opls_902 310 MF N11 9272 -0.407377 14.0067
8191 opls_145 310 MF C11 9273 0.682493 12.011
8192 opls_901 310 MF N21 9274 -0.299731 14.0067
8193 opls_157 310 MF C1 9275 0.024669 12.011
8194 opls_156 310 MF H011 9278 0.0 1.008
8195 opls_156 310 MF H012 9279 0.0 1.008
8196 opls_910 310 MF H21 9280 0.0 1.008
8197 A 310 MF A2 9281 0.0 72.06679999999997
8198 opls_902 310 MF N12 9282 -0.407374 14.0067
8199 opls_145 310 MF C12 9283 0.682437 12.011
8200 opls_901 310 MF N22 9284 -0.299729 14.0067
8201 opls_157 310 MF C2 9285 0.024672 12.011
8202 opls_154 310 MF O2 9286 0.0 15.9994
8203 opls_156 310 MF H021 9288 0.0 1.008
8204 opls_156 310 MF H022 9289 0.0 1.008
8205 opls_910 310 MF H31 9290 0.0 1.008
8206 A 310 MF A3 9291 0.0 72.06679999999997
8207 opls_902 310 MF N13 9292 -0.407483 14.0067
8208 opls_145 310 MF C13 9293 0.682492 12.011
8209 opls_901 310 MF N23 9294 -0.299758 14.0067
8210 opls_157 310 MF C3 9295 0.024689 12.011
8211 opls_156 310 MF H031 9298 0.0 1.008
8212 opls_156 310 MF H032 9299 0.0 1.008
8213 opls_910 310 MF H11 9300 0.0 1.008
8214 A 311 MF A1 9301 0.0 72.06679999999997
8215 opls_902 311 MF N11 9302 -0.407377 14.0067
8216 opls_145 311 MF C11 9303 0.682493 12.011
8217 opls_901 311 MF N21 9304 -0.299731 14.0067
8218 opls_157 311 MF C1 9305 0.024669 12.011
8219 opls_154 311 MF O1 9306 0.0 15.9994
8220 opls_156 311 MF H011 9308 0.0 1.008
8221 opls_156 311 MF H012 9309 0.0 1.008
8222 opls_910 311 MF H21 9310 0.0 1.008
8223 A 311 MF A2 9311 0.0 72.06679999999997
8224 opls_902 311 MF N12 9312 -0.407374 14.0067
8225 opls_145 311 MF C12 9313 0.682437 12.011
8226 opls_901 311 MF N22 9314 -0.299729 14.0067
8227 opls_157 311 MF C2 9315 0.024672 12.011
8228 opls_154 311 MF O2 9316 0.0 15.9994
8229 opls_156 311 MF H021 9318 0.0 1.008
8230 opls_156 311 MF H022 9319 0.0 1.008
8231 opls_910 311 MF H31 9320 0.0 1.008
8232 A 311 MF A3 9321 0.0 72.06679999999997
8233 opls_902 311 MF N13 9322 -0.407483 14.0067
8234 opls_145 311 MF C13 9323 0.682492 12.011
8235 opls_901 311 MF N23 9324 -0.299758 14.0067
8236 opls_157 311 MF C3 9325 0.024689 12.011
8237 opls_154 311 MF O3 9326 0.0 15.9994
8238 opls_156 311 MF H031 9328 0.0 1.008
8239 opls_156 311 MF H032 9329 0.0 1.008
8240 opls_910 311 MF H11 9330 0.0 1.008
8241 A 312 MF A1 9331 0.0 72.06679999999997
8242 opls_902 312 MF N11 9332 -0.407377 14.0067
8243 opls_145 312 MF C11 9333 0.682493 12.011
8244 opls_901 312 MF N21 9334 -0.299731 14.0067
8245 opls_157 312 MF C1 9335 0.024669 12.011
8246 opls_154 312 MF O1 9336 0.0 15.9994
8247 opls_156 312 MF H011 9338 0.0 1.008
8248 opls_156 312 MF H012 9339 0.0 1.008
8249 opls_910 312 MF H21 9340 0.0 1.008
8250 A 312 MF A2 9341 0.0 72.06679999999997
8251 opls_902 312 MF N12 9342 -0.407374 14.0067
8252 opls_145 312 MF C12 9343 0.682437 12.011
8253 opls_901 312 MF N22 9344 -0.299729 14.0067
8254 opls_157 312 MF C2 9345 0.024672 12.011
8255 opls_156 312 MF H021 9348 0.0 1.008
8256 opls_156 312 MF H022 9349 0.0 1.008
8257 opls_910 312 MF H31 9350 0.0 1.008
8258 A 312 MF A3 9351 0.0 72.06679999999997
8259 opls_902 312 MF N13 9352 -0.407483 14.0067
8260 opls_145 312 MF C13 9353 0.682492 12.011
8261 opls_901 312 MF N23 9354 -0.299758 14.0067
8262 opls_157 312 MF C3 9355 0.024689 12.011
8263 opls_156 312 MF H031 9358 0.0 1.008
8264 opls_156 312 MF H032 9359 0.0 1.008
8265 opls_910 312 MF H11 9360 0.0 1.008
8266 A 313 MF A1 9361 0.0 72.06679999999997
8267 opls_902 313 MF N11 9362 -0.407377 14.0067
8268 opls_145 313 MF C11 9363 0.682493 12.011
8269 opls_901 313 MF N21 9364 -0.299731 14.0067
8270 opls_157 313 MF C1 9365 0.024669 12.011
8271 opls_154 313 MF O1 9366 0.0 15.9994
8272 opls_156 313 MF H011 9368 0.0 1.008
8273 opls_156 313 MF H012 9369 0.0 1.008
8274 opls_910 313 MF H21 9370 0.0 1.008
8275 A 313 MF A2 9371 0.0 72.06679999999997
8276 opls_902 313 MF N12 9372 -0.407374 14.0067
8277 opls_145 313 MF C12 9373 0.682437 12.011
8278 opls_901 313 MF N22 9374 -0.299729 14.0067
8279 opls_157 313 MF C2 9375 0.024672 12.011
8280 opls_154 313 MF O2 9376 0.0 15.9994
8281 opls_156 313 MF H021 9378 0.0 1.008
8282 opls_156 313 MF H022 9379 0.0 1.008
8283 opls_910 313 MF H31 9380 0.0 1.008
8284 A 313 MF A3 9381 0.0 72.06679999999997
8285 opls_902 313 MF N13 9382 -0.407483 14.0067
8286 opls_145 313 MF C13 9383 0.682492 12.011
8287 opls_901 313 MF N23 9384 -0.299758 14.0067
8288 opls_157 313 MF C3 9385 0.024689 12.011
8289 opls_156 313 MF H031 9388 0.0 1.008
8290 opls_156 313 MF H032 9389 0.0 1.008
8291 opls_910 313 MF H11 9390 0.0 1.008
8292 A 314 MF A1 9391 0.0 72.06679999999997
8293 opls_902 314 MF N11 9392 -0.407377 14.0067
8294 opls_145 314 MF C11 9393 0.682493 12.011
8295 opls_901 314 MF N21 9394 -0.299731 14.0067
8296 opls_157 314 MF C1 9395 0.024669 12.011
8297 opls_156 314 MF H011 9398 0.0 1.008
8298 opls_156 314 MF H012 9399 0.0 1.008
8299 opls_910 314 MF H21 9400 0.0 1.008
8300 A 314 MF A2 9401 0.0 72.06679999999997
8301 opls_902 314 MF N12 9402 -0.407374 14.0067
8302 opls_145 314 MF C12 9403 0.682437 12.011
8303 opls_901 314 MF N22 9404 -0.299729 14.0067
8304 opls_157 314 MF C2 9405 0.024672 12.011
8305 opls_154 314 MF O2 9406 0.0 15.9994
8306 opls_155 314 MF H02 9407 0.0 1.008
8307 opls_156 314 MF H021 9408 0.0 1.008
8308 opls_156 314 MF H022 9409 0.0 1.008
8309 opls_910 314 MF H31 9410 0.0 1.008
8310 A 314 MF A3 9411 0.0 72.06679999999997
8311 opls_902 314 MF N13 9412 -0.407483 14.0067
8312 opls_145 314 MF C13 9413 0.682492 12.011
8313 opls_901 314 MF N23 9414 -0.299758 14.0067
8314 opls_157 314 MF C3 9415 0.024689 12.011
8315 opls_156 314 MF H031 9418 0.0 1.008
8316 opls_156 314 MF H032 9419 0.0 1.008
8317 opls_910 314 MF H11 9420 0.0 1.008
8318 A 315 MF A1 9421 0.0 72.06679999999997
8319 opls_902 315 MF N11 9422 -0.407377 14.0067
8320 opls_145 315 MF C11 9423 0.682493 12.011
8321 opls_901 315 MF N21 9424 -0.299731 14.0067
8322 opls_157 315 MF C1 9425 0.024669 12.011
8323 opls_156 315 MF H011 9428 0.0 1.008
8324 opls_156 315 MF H012 9429 0.0 1.008
8325 opls_910 315 MF H21 9430 0.0 1.008
8326 A 315 MF A2 9431 0.0 72.06679999999997
8327 opls_902 315 MF N12 9432 -0.407374 14.0067
8328 opls_145 315 MF C12 9433 0.682437 12.011
8329 opls_901 315 MF N22 9434 -0.299729 14.0067
8330 opls_157 315 MF C2 9435 0.024672 12.011
8331 opls_156 315 MF H021 9438 0.0 1.008
8332 opls_156 315 MF H022 9439 0.0 1.008
8333 opls_910 315 MF H31 9440 0.0 1.008
8334 A 315 MF A3 9441 0.0 72.06679999999997
8335 opls_902 315 MF N13 9442 -0.407483 14.0067
8336 opls_145 315 MF C13 9443 0.682492 12.011
8337 opls_901 315 MF N23 9444 -0.299758 14.0067
8338 opls_157 315 MF C3 9445 0.024689 12.011
8339 opls_156 315 MF H031 9448 0.0 1.008
8340 opls_156 315 MF H032 9449 0.0 1.008
8341 opls_910 315 MF H11 9450 0.0 1.008
8342 A 316 MF A1 9451 0.0 72.06679999999997
8343 opls_902 316 MF N11 9452 -0.407377 14.0067
8344 opls_145 316 MF C11 9453 0.682493 12.011
8345 opls_901 316 MF N21 9454 -0.299731 14.0067
8346 opls_157 316 MF C1 9455 0.024669 12.011
8347 opls_156 316 MF H011 9458 0.0 1.008
8348 opls_156 316 MF H012 9459 0.0 1.008
8349 opls_910 316 MF H21 9460 0.0 1.008
8350 A 316 MF A2 9461 0.0 72.06679999999997
8351 opls_902 316 MF N12 9462 -0.407374 14.0067
8352 opls_145 316 MF C12 9463 0.682437 12.011
8353 opls_901 316 MF N22 9464 -0.299729 14.0067
8354 opls_157 316 MF C2 9465 0.024672 12.011
8355 opls_156 316 MF H021 9468 0.0 1.008
8356 opls_156 316 MF H022 9469 0.0 1.008
8357 opls_910 316 MF H31 9470 0.0 1.008
8358 A 316 MF A3 9471 0.0 72.06679999999997
8359 opls_902 316 MF N13 9472 -0.407483 14.0067
8360 opls_145 316 MF C13 9473 0.682492 12.011
8361 opls_901 316 MF N23 9474 -0.299758 14.0067
8362 opls_157 316 MF C3 9475 0.024689 12.011
8363 opls_156 316 MF H031 9478 0.0 1.008
8364 opls_156 316 MF H032 9479 0.0 1.008
8365 opls_910 316 MF H11 9480 0.0 1.008
8366 A 317 MF A1 9481 0.0 72.06679999999997
8367 opls_902 317 MF N11 9482 -0.407377 14.0067
8368 opls_145 317 MF C11 9483 0.682493 12.011
8369 opls_901 317 MF N21 9484 -0.299731 14.0067
8370 opls_157 317 MF C1 9485 0.024669 12.011
8371 opls_154 317 MF O1 9486 0.0 15.9994
8372 opls_156 317 MF H011 9488 0.0 1.008
8373 opls_156 317 MF H012 9489 0.0 1.008
8374 opls_910 317 MF H21 9490 0.0 1.008
8375 A 317 MF A2 9491 0.0 72.06679999999997
8376 opls_902 317 MF N12 9492 -0.407374 14.0067
8377 opls_145 317 MF C12 9493 0.682437 12.011
8378 opls_901 317 MF N22 9494 -0.299729 14.0067
8379 opls_157 317 MF C2 9495 0.024672 12.011
8380 opls_154 317 MF O2 9496 0.0 15.9994
8381 opls_156 317 MF H021 9498 0.0 1.008
8382 opls_156 317 MF H022 9499 0.0 1.008
8383 opls_910 317 MF H31 9500 0.0 1.008
8384 A 317 MF A3 9501 0.0 72.06679999999997
8385 opls_902 317 MF N13 9502 -0.407483 14.0067
8386 opls_145 317 MF C13 9503 0.682492 12.011
8387 opls_901 317 MF N23 9504 -0.299758 14.0067
8388 opls_157 317 MF C3 9505 0.024689 12.011
8389 opls_156 317 MF H031 9508 0.0 1.008
8390 opls_156 317 MF H032 9509 0.0 1.008
8391 opls_910 317 MF H11 9510 0.0 1.008
8392 A 318 MF A1 9511 0.0 72.06679999999997
8393 opls_902 318 MF N11 9512 -0.407377 14.0067
8394 opls_145 318 MF C11 9513 0.682493 12.011
8395 opls_901 318 MF N21 9514 -0.299731 14.0067
8396 opls_157 318 MF C1 9515 0.024669 12.011
8397 opls_156 318 MF H011 9518 0.0 1.008
8398 opls_156 318 MF H012 9519 0.0 1.008
8399 opls_910 318 MF H21 9520 0.0 1.008
8400 A 318 MF A2 9521 0.0 72.06679999999997
8401 opls_902 318 MF N12 9522 -0.407374 14.0067
8402 opls_145 318 MF C12 9523 0.682437 12.011
8403 opls_901 318 MF N22 9524 -0.299729 14.0067
8404 opls_157 318 MF C2 9525 0.024672 12.011
8405 opls_154 318 MF O2 9526 0.0 15.9994
8406 opls_156 318 MF H021 9528 0.0 1.008
8407 opls_156 318 MF H022 9529 0.0 1.008
8408 opls_910 318 MF H31 9530 0.0 1.008
8409 A 318 MF A3 9531 0.0 72.06679999999997
8410 opls_902 318 MF N13 9532 -0.407483 14.0067
8411 opls_145 318 MF C13 9533 0.682492 12.011
8412 opls_901 318 MF N23 9534 -0.299758 14.0067
8413 opls_157 318 MF C3 9535 0.024689 12.011
8414 opls_154 318 MF O3 9536 0.0 15.9994
8415 opls_156 318 MF H031 9538 0.0 1.008
8416 opls_156 318 MF H032 9539 0.0 1.008
8417 opls_910 318 MF H11 9540 0.0 1.008
8418 A 319 MF A1 9541 0.0 72.06679999999997
8419 opls_902 319 MF N11 9542 -0.407377 14.0067
8420 opls_145 319 MF C11 9543 0.682493 12.011
8421 opls_901 319 MF N21 9544 -0.299731 14.0067
8422 opls_157 319 MF C1 9545 0.024669 12.011
8423 opls_154 319 MF O1 9546 0.0 15.9994
8424 opls_156 319 MF H011 9548 0.0 1.008
8425 opls_156 319 MF H012 9549 0.0 1.008
8426 opls_910 319 MF H21 9550 0.0 1.008
8427 A 319 MF A2 9551 0.0 72.06679999999997
8428 opls_902 319 MF N12 9552 -0.407374 14.0067
8429 opls_145 319 MF C12 9553 0.682437 12.011
8430 opls_901 319 MF N22 9554 -0.299729 14.0067
8431 opls_157 319 MF C2 9555 0.024672 12.011
8432 opls_156 319 MF H021 9558 0.0 1.008
8433 opls_156 319 MF H022 9559 0.0 1.008
8434 opls_910 319 MF H31 9560 0.0 1.008
8435 A 319 MF A3 9561 0.0 72.06679999999997
8436 opls_902 319 MF N13 9562 -0.407483 14.0067
8437 opls_145 319 MF C13 9563 0.682492 12.011
8438 opls_901 319 MF N23 9564 -0.299758 14.0067
8439 opls_157 319 MF C3 9565 0.024689 12.011
8440 opls_156 319 MF H031 9568 0.0 1.008
8441 opls_156 319 MF H032 9569 0.0 1.008
8442 opls_910 319 MF H11 9570 0.0 1.008
8443 A 320 MF A1 9571 0.0 72.06679999999997
8444 opls_902 320 MF N11 9572 -0.407377 14.0067
8445 opls_145 320 MF C11 9573 0.682493 12.011
8446 opls_901 320 MF N21 9574 -0.299731 14.0067
8447 opls_157 320 MF C1 9575 0.024669 12.011
8448 opls_154 320 MF O1 9576 0.0 15.9994
8449 opls_155 320 MF H01 9577 0.0 1.008
8450 opls_156 320 MF H011 9578 0.0 1.008
8451 opls_156 320 MF H012 9579 0.0 1.008
8452 opls_910 320 MF H21 9580 0.0 1.008
8453 A 320 MF A2 9581 0.0 72.06679999999997
8454 opls_902 320 MF N12 9582 -0.407374 14.0067
8455 opls_145 320 MF C12 9583 0.682437 12.011
8456 opls_901 320 MF N22 9584 -0.299729 14.0067
8457 opls_157 320 MF C2 9585 0.024672 12.011
8458 opls_156 320 MF H021 9588 0.0 1.008
8459 opls_156 320 MF H022 9589 0.0 1.008
8460 opls_910 320 MF H31 9590 0.0 1.008
8461 A 320 MF A3 9591 0.0 72.06679999999997
8462 opls_902 320 MF N13 9592 -0.407483 14.0067
8463 opls_145 320 MF C13 9593 0.682492 12.011
8464 opls_901 320 MF N23 9594 -0.299758 14.0067
8465 opls_157 320 MF C3 9595 0.024689 12.011
8466 opls_156 320 MF H031 9598 0.0 1.008
8467 opls_156 320 MF H032 9599 0.0 1.008
8468 opls_910 320 MF H11 9600 0.0 1.008
8469 A 321 MF A1 9601 0.0 72.06679999999997
8470 opls_902 321 MF N11 9602 -0.407377 14.0067
8471 opls_145 321 MF C11 9603 0.682493 12.011
8472 opls_901 321 MF N21 9604 -0.299731 14.0067
8473 opls_157 321 MF C1 9605 0.024669 12.011
8474 opls_156 321 MF H011 9608 0.0 1.008
8475 opls_156 321 MF H012 9609 0.0 1.008
8476 opls_910 321 MF H21 9610 0.0 1.008
8477 A 321 MF A2 9611 0.0 72.06679999999997
8478 opls_902 321 MF N12 9612 -0.407374 14.0067
8479 opls_145 321 MF C12 9613 0.682437 12.011
8480 opls_901 321 MF N22 9614 -0.299729 14.0067
8481 opls_157 321 MF C2 9615 0.024672 12.011
8482 opls_154 321 MF O2 9616 0.0 15.9994
8483 opls_156 321 MF H021 9618 0.0 1.008
8484 opls_156 321 MF H022 9619 0.0 1.008
8485 opls_910 321 MF H31 9620 0.0 1.008
8486 A 321 MF A3 9621 0.0 72.06679999999997
8487 opls_902 321 MF N13 9622 -0.407483 14.0067
8488 opls_145 321 MF C13 9623 0.682492 12.011
8489 opls_901 321 MF N23 9624 -0.299758 14.0067
8490 opls_157 321 MF C3 9625 0.024689 12.011
8491 opls_154 321 MF O3 9626 0.0 15.9994
8492 opls_156 321 MF H031 9628 0.0 1.008
8493 opls_156 321 MF H032 9629 0.0 1.008
8494 opls_910 321 MF H11 9630 0.0 1.008
8495 A 322 MF A1 9631 0.0 72.06679999999997
8496 opls_902 322 MF N11 9632 -0.407377 14.0067
8497 opls_145 322 MF C11 9633 0.682493 12.011
8498 opls_901 322 MF N21 9634 -0.299731 14.0067
8499 opls_157 322 MF C1 9635 0.024669 12.011
8500 opls_156 322 MF H011 9638 0.0 1.008
8501 opls_156 322 MF H012 9639 0.0 1.008
8502 opls_910 322 MF H21 9640 0.0 1.008
8503 A 322 MF A2 9641 0.0 72.06679999999997
8504 opls_902 322 MF N12 9642 -0.407374 14.0067
8505 opls_145 322 MF C12 9643 0.682437 12.011
8506 opls_901 322 MF N22 9644 -0.299729 14.0067
8507 opls_157 322 MF C2 9645 0.024672 12.011
8508 opls_156 322 MF H021 9648 0.0 1.008
8509 opls_156 322 MF H022 9649 0.0 1.008
8510 opls_910 322 MF H31 9650 0.0 1.008
8511 A 322 MF A3 9651 0.0 72.06679999999997
8512 opls_902 322 MF N13 9652 -0.407483 14.0067
8513 opls_145 322 MF C13 9653 0.682492 12.011
8514 opls_901 322 MF N23 9654 -0.299758 14.0067
8515 opls_157 322 MF C3 9655 0.024689 12.011
8516 opls_156 322 MF H031 9658 0.0 1.008
8517 opls_156 322 MF H032 9659 0.0 1.008
8518 opls_910 322 MF H11 9660 0.0 1.008
8519 A 323 MF A1 9661 0.0 72.06679999999997
8520 opls_902 323 MF N11 9662 -0.407377 14.0067
8521 opls_145 323 MF C11 9663 0.682493 12.011
8522 opls_901 323 MF N21 9664 -0.299731 14.0067
8523 opls_157 323 MF C1 9665 0.024669 12.011
8524 opls_156 323 MF H011 9668 0.0 1.008
8525 opls_156 323 MF H012 9669 0.0 1.008
8526 opls_910 323 MF H21 9670 0.0 1.008
8527 A 323 MF A2 9671 0.0 72.06679999999997
8528 opls_902 323 MF N12 9672 -0.407374 14.0067
8529 opls_145 323 MF C12 9673 0.682437 12.011
8530 opls_901 323 MF N22 9674 -0.299729 14.0067
8531 opls_157 323 MF C2 9675 0.024672 12.011
8532 opls_154 323 MF O2 9676 0.0 15.9994
8533 opls_156 323 MF H021 9678 0.0 1.008
8534 opls_156 323 MF H022 9679 0.0 1.008
8535 opls_910 323 MF H31 9680 0.0 1.008
8536 A 323 MF A3 9681 0.0 72.06679999999997
8537 opls_902 323 MF N13 9682 -0.407483 14.0067
8538 opls_145 323 MF C13 9683 0.682492 12.011
8539 opls_901 323 MF N23 9684 -0.299758 14.0067
8540 opls_157 323 MF C3 9685 0.024689 12.011
8541 opls_154 323 MF O3 9686 0.0 15.9994
8542 opls_156 323 MF H031 9688 0.0 1.008
8543 opls_156 323 MF H032 9689 0.0 1.008
8544 opls_910 323 MF H11 9690 0.0 1.008
8545 A 324 MF A1 9691 0.0 72.06679999999997
8546 opls_902 324 MF N11 9692 -0.407377 14.0067
8547 opls_145 324 MF C11 9693 0.682493 12.011
8548 opls_901 324 MF N21 9694 -0.299731 14.0067
8549 opls_157 324 MF C1 9695 0.024669 12.011
8550 opls_156 324 MF H011 9698 0.0 1.008
8551 opls_156 324 MF H012 9699 0.0 1.008
8552 opls_910 324 MF H21 9700 0.0 1.008
8553 A 324 MF A2 9701 0.0 72.06679999999997
8554 opls_902 324 MF N12 9702 -0.407374 14.0067
8555 opls_145 324 MF C12 9703 0.682437 12.011
8556 opls_901 324 MF N22 9704 -0.299729 14.0067
8557 opls_157 324 MF C2 9705 0.024672 12.011
8558 opls_154 324 MF O2 9706 0.0 15.9994
8559 opls_156 324 MF H021 9708 0.0 1.008
8560 opls_156 324 MF H022 9709 0.0 1.008
8561 opls_910 324 MF H31 9710 0.0 1.008
8562 A 324 MF A3 9711 0.0 72.06679999999997
8563 opls_902 324 MF N13 9712 -0.407483 14.0067
8564 opls_145 324 MF C13 9713 0.682492 12.011
8565 opls_901 324 MF N23 9714 -0.299758 14.0067
8566 opls_157 324 MF C3 9715 0.024689 12.011
8567 opls_156 324 MF H031 9718 0.0 1.008
8568 opls_156 324 MF H032 9719 0.0 1.008
8569 opls_910 324 MF H11 9720 0.0 1.008
8570 A 325 MF A1 9721 0.0 72.06679999999997
8571 opls_902 325 MF N11 9722 -0.407377 14.0067
8572 opls_145 325 MF C11 9723 0.682493 12.011
8573 opls_901 325 MF N21 9724 -0.299731 14.0067
8574 opls_157 325 MF C1 9725 0.024669 12.011
8575 opls_154 325 MF O1 9726 0.0 15.9994
8576 opls_156 325 MF H011 9728 0.0 1.008
8577 opls_156 325 MF H012 9729 0.0 1.008
8578 opls_910 325 MF H21 9730 0.0 1.008
8579 A 325 MF A2 9731 0.0 72.06679999999997
8580 opls_902 325 MF N12 9732 -0.407374 14.0067
8581 opls_145 325 MF C12 9733 0.682437 12.011
8582 opls_901 325 MF N22 9734 -0.299729 14.0067
8583 opls_157 325 MF C2 9735 0.024672 12.011
8584 opls_156 325 MF H021 9738 0.0 1.008
8585 opls_156 325 MF H022 9739 0.0 1.008
8586 opls_910 325 MF H31 9740 0.0 1.008
8587 A 325 MF A3 9741 0.0 72.06679999999997
8588 opls_902 325 MF N13 9742 -0.407483 14.0067
8589 opls_145 325 MF C13 9743 0.682492 12.011
8590 opls_901 325 MF N23 9744 -0.299758 14.0067
8591 opls_157 325 MF C3 9745 0.024689 12.011
8592 opls_156 325 MF H031 9748 0.0 1.008
8593 opls_156 325 MF H032 9749 0.0 1.008
8594 opls_910 325 MF H11 9750 0.0 1.008
8595 A 326 MF A1 9751 0.0 72.06679999999997
8596 opls_902 326 MF N11 9752 -0.407377 14.0067
8597 opls_145 326 MF C11 9753 0.682493 12.011
8598 opls_901 326 MF N21 9754 -0.299731 14.0067
8599 opls_157 326 MF C1 9755 0.024669 12.011
8600 opls_156 326 MF H011 9758 0.0 1.008
8601 opls_156 326 MF H012 9759 0.0 1.008
8602 opls_910 326 MF H21 9760 0.0 1.008
8603 A 326 MF A2 9761 0.0 72.06679999999997
8604 opls_902 326 MF N12 9762 -0.407374 14.0067
8605 opls_145 326 MF C12 9763 0.682437 12.011
8606 opls_901 326 MF N22 9764 -0.299729 14.0067
8607 opls_157 326 MF C2 9765 0.024672 12.011
8608 opls_154 326 MF O2 9766 0.0 15.9994
8609 opls_156 326 MF H021 9768 0.0 1.008
8610 opls_156 326 MF H022 9769 0.0 1.008
8611 opls_910 326 MF H31 9770 0.0 1.008
8612 A 326 MF A3 9771 0.0 72.06679999999997
8613 opls_902 326 MF N13 9772 -0.407483 14.0067
8614 opls_145 326 MF C13 9773 0.682492 12.011
8615 opls_901 326 MF N23 9774 -0.299758 14.0067
8616 opls_157 326 MF C3 9775 0.024689 12.011
8617 opls_154 326 MF O3 9776 0.0 15.9994
8618 opls_156 326 MF H031 9778 0.0 1.008
8619 opls_156 326 MF H032 9779 0.0 1.008
8620 opls_910 326 MF H11 9780 0.0 1.008
8621 A 327 MF A1 9781 0.0 72.06679999999997
8622 opls_902 327 MF N11 9782 -0.407377 14.0067
8623 opls_145 327 MF C11 9783 0.682493 12.011
8624 opls_901 327 MF N21 9784 -0.299731 14.0067
8625 opls_157 327 MF C1 9785 0.024669 12.011
8626 opls_154 327 MF O1 9786 0.0 15.9994
8627 opls_156 327 MF H011 9788 0.0 1.008
8628 opls_156 327 MF H012 9789 0.0 1.008
8629 opls_910 327 MF H21 9790 0.0 1.008
8630 A 327 MF A2 9791 0.0 72.06679999999997
8631 opls_902 327 MF N12 9792 -0.407374 14.0067
8632 opls_145 327 MF C12 9793 0.682437 12.011
8633 opls_901 327 MF N22 9794 -0.299729 14.0067
8634 opls_157 327 MF C2 9795 0.024672 12.011
8635 opls_156 327 MF H021 9798 0.0 1.008
8636 opls_156 327 MF H022 9799 0.0 1.008
8637 opls_910 327 MF H31 9800 0.0 1.008
8638 A 327 MF A3 9801 0.0 72.06679999999997
8639 opls_902 327 MF N13 9802 -0.407483 14.0067
8640 opls_145 327 MF C13 9803 0.682492 12.011
8641 opls_901 327 MF N23 9804 -0.299758 14.0067
8642 opls_157 327 MF C3 9805 0.024689 12.011
8643 opls_156 327 MF H031 9808 0.0 1.008
8644 opls_156 327 MF H032 9809 0.0 1.008
8645 opls_910 327 MF H11 9810 0.0 1.008
8646 A 328 MF A1 9811 0.0 72.06679999999997
8647 opls_902 328 MF N11 9812 -0.407377 14.0067
8648 opls_145 328 MF C11 9813 0.682493 12.011
8649 opls_901 328 MF N21 9814 -0.299731 14.0067
8650 opls_157 328 MF C1 9815 0.024669 12.011
8651 opls_156 328 MF H011 9818 0.0 1.008
8652 opls_156 328 MF H012 9819 0.0 1.008
8653 opls_910 328 MF H21 9820 0.0 1.008
8654 A 328 MF A2 9821 0.0 72.06679999999997
8655 opls_902 328 MF N12 9822 -0.407374 14.0067
8656 opls_145 328 MF C12 9823 0.682437 12.011
8657 opls_901 328 MF N22 9824 -0.299729 14.0067
8658 opls_157 328 MF C2 9825 0.024672 12.011
8659 opls_156 328 MF H021 9828 0.0 1.008
8660 opls_156 328 MF H022 9829 0.0 1.008
8661 opls_910 328 MF H31 9830 0.0 1.008
8662 A 328 MF A3 9831 0.0 72.06679999999997
8663 opls_902 328 MF N13 9832 -0.407483 14.0067
8664 opls_145 328 MF C13 9833 0.682492 12.011
8665 opls_901 328 MF N23 9834 -0.299758 14.0067
8666 opls_157 328 MF C3 9835 0.024689 12.011
8667 opls_156 328 MF H031 9838 0.0 1.008
8668 opls_156 328 MF H032 9839 0.0 1.008
8669 opls_910 328 MF H11 9840 0.0 1.008
8670 A 329 MF A1 9841 0.0 72.06679999999997
8671 opls_902 329 MF N11 9842 -0.407377 14.0067
8672 opls_145 329 MF C11 9843 0.682493 12.011
8673 opls_901 329 MF N21 9844 -0.299731 14.0067
8674 opls_157 329 MF C1 9845 0.024669 12.011
8675 opls_156 329 MF H011 9848 0.0 1.008
8676 opls_156 329 MF H012 9849 0.0 1.008
8677 opls_910 329 MF H21 9850 0.0 1.008
8678 A 329 MF A2 9851 0.0 72.06679999999997
8679 opls_902 329 MF N12 9852 -0.407374 14.0067
8680 opls_145 329 MF C12 9853 0.682437 12.011
8681 opls_901 329 MF N22 9854 -0.299729 14.0067
8682 opls_157 329 MF C2 9855 0.024672 12.011
8683 opls_154 329 MF O2 9856 0.0 15.9994
8684 opls_156 329 MF H021 9858 0.0 1.008
8685 opls_156 329 MF H022 9859 0.0 1.008
8686 opls_910 329 MF H31 9860 0.0 1.008
8687 A 329 MF A3 9861 0.0 72.06679999999997
8688 opls_902 329 MF N13 9862 -0.407483 14.0067
8689 opls_145 329 MF C13 9863 0.682492 12.011
8690 opls_901 329 MF N23 9864 -0.299758 14.0067
8691 opls_157 329 MF C3 9865 0.024689 12.011
8692 opls_156 329 MF H031 9868 0.0 1.008
8693 opls_156 329 MF H032 9869 0.0 1.008
8694 opls_910 329 MF H11 9870 0.0 1.008
8695 A 330 MF A1 9871 0.0 72.06679999999997
8696 opls_902 330 MF N11 9872 -0.407377 14.0067
8697 opls_145 330 MF C11 9873 0.682493 12.011
8698 opls_901 330 MF N21 9874 -0.299731 14.0067
8699 opls_157 330 MF C1 9875 0.024669 12.011
8700 opls_156 330 MF H011 9878 0.0 1.008
8701 opls_156 330 MF H012 9879 0.0 1.008
8702 opls_910 330 MF H21 9880 0.0 1.008
8703 A 330 MF A2 9881 0.0 72.06679999999997
8704 opls_902 330 MF N12 9882 -0.407374 14.0067
8705 opls_145 330 MF C12 9883 0.682437 12.011
8706 opls_901 330 MF N22 9884 -0.299729 14.0067
8707 opls_157 330 MF C2 9885 0.024672 12.011
8708 opls_154 330 MF O2 9886 0.0 15.9994
8709 opls_155 330 MF H02 9887 0.0 1.008
8710 opls_156 330 MF H021 9888 0.0 1.008
8711 opls_156 330 MF H022 9889 0.0 1.008
8712 opls_910 330 MF H31 9890 0.0 1.008
8713 A 330 MF A3 9891 0.0 72.06679999999997
8714 opls_902 330 MF N13 9892 -0.407483 14.0067
8715 opls_145 330 MF C13 9893 0.682492 12.011
8716 opls_901 330 MF N23 9894 -0.299758 14.0067
8717 opls_157 330 MF C3 9895 0.024689 12.011
8718 opls_156 330 MF H031 9898 0.0 1.008
8719 opls_156 330 MF H032 9899 0.0 1.008
8720 opls_910 330 MF H11 9900 0.0 1.008
8721 A 331 MF A1 9901 0.0 72.06679999999997
8722 opls_902 331 MF N11 9902 -0.407377 14.0067
8723 opls_145 331 MF C11 9903 0.682493 12.011
8724 opls_901 331 MF N21 9904 -0.299731 14.0067
8725 opls_157 331 MF C1 9905 0.024669 12.011
8726 opls_156 331 MF H011 9908 0.0 1.008
8727 opls_156 331 MF H012 9909 0.0 1.008
8728 opls_910 331 MF H21 9910 0.0 1.008
8729 A 331 MF A2 9911 0.0 72.06679999999997
8730 opls_902 331 MF N12 9912 -0.407374 14.0067
8731 opls_145 331 MF C12 9913 0.682437 12.011
8732 opls_901 331 MF N22 9914 -0.299729 14.0067
8733 opls_157 331 MF C2 9915 0.024672 12.011
8734 opls_156 331 MF H021 9918 0.0 1.008
8735 opls_156 331 MF H022 9919 0.0 1.008
8736 opls_910 331 MF H31 9920 0.0 1.008
8737 A 331 MF A3 9921 0.0 72.06679999999997
8738 opls_902 331 MF N13 9922 -0.407483 14.0067
8739 opls_145 331 MF C13 9923 0.682492 12.011
8740 opls_901 331 MF N23 9924 -0.299758 14.0067
8741 opls_157 331 MF C3 9925 0.024689 12.011
8742 opls_154 331 MF O3 9926 0.0 15.9994
8743 opls_156 331 MF H031 9928 0.0 1.008
8744 opls_156 331 MF H032 9929 0.0 1.008
8745 opls_910 331 MF H11 9930 0.0 1.008
8746 A 332 MF A1 9931 0.0 72.06679999999997
8747 opls_902 332 MF N11 9932 -0.407377 14.0067
8748 opls_145 332 MF C11 9933 0.682493 12.011
8749 opls_901 332 MF N21 9934 -0.299731 14.0067
8750 opls_157 332 MF C1 9935 0.024669 12.011
8751 opls_154 332 MF O1 9936 0.0 15.9994
8752 opls_156 332 MF H011 9938 0.0 1.008
8753 opls_156 332 MF H012 9939 0.0 1.008
8754 opls_910 332 MF H21 9940 0.0 1.008
8755 A 332 MF A2 9941 0.0 72.06679999999997
8756 opls_902 332 MF N12 9942 -0.407374 14.0067
8757 opls_145 332 MF C12 9943 0.682437 12.011
8758 opls_901 332 MF N22 9944 -0.299729 14.0067
8759 opls_157 332 MF C2 9945 0.024672 12.011
8760 opls_154 332 MF O2 9946 0.0 15.9994
8761 opls_156 332 MF H021 9948 0.0 1.008
8762 opls_156 332 MF H022 9949 0.0 1.008
8763 opls_910 332 MF H31 9950 0.0 1.008
8764 A 332 MF A3 9951 0.0 72.06679999999997
8765 opls_902 332 MF N13 9952 -0.407483 14.0067
8766 opls_145 332 MF C13 9953 0.682492 12.011
8767 opls_901 332 MF N23 9954 -0.299758 14.0067
8768 opls_157 332 MF C3 9955 0.024689 12.011
8769 opls_154 332 MF O3 9956 0.0 15.9994
8770 opls_156 332 MF H031 9958 0.0 1.008
8771 opls_156 332 MF H032 9959 0.0 1.008
8772 opls_910 332 MF H11 9960 0.0 1.008
8773 A 333 MF A1 9961 0.0 72.06679999999997
8774 opls_902 333 MF N11 9962 -0.407377 14.0067
8775 opls_145 333 MF C11 9963 0.682493 12.011
8776 opls_901 333 MF N21 9964 -0.299731 14.0067
8777 opls_157 333 MF C1 9965 0.024669 12.011
8778 opls_156 333 MF H011 9968 0.0 1.008
8779 opls_156 333 MF H012 9969 0.0 1.008
8780 opls_910 333 MF H21 9970 0.0 1.008
8781 A 333 MF A2 9971 0.0 72.06679999999997
8782 opls_902 333 MF N12 9972 -0.407374 14.0067
8783 opls_145 333 MF C12 9973 0.682437 12.011
8784 opls_901 333 MF N22 9974 -0.299729 14.0067
8785 opls_157 333 MF C2 9975 0.024672 12.011
8786 opls_154 333 MF O2 9976 0.0 15.9994
8787 opls_156 333 MF H021 9978 0.0 1.008
8788 opls_156 333 MF H022 9979 0.0 1.008
8789 opls_910 333 MF H31 9980 0.0 1.008
8790 A 333 MF A3 9981 0.0 72.06679999999997
8791 opls_902 333 MF N13 9982 -0.407483 14.0067
8792 opls_145 333 MF C13 9983 0.682492 12.011
8793 opls_901 333 MF N23 9984 -0.299758 14.0067
8794 opls_157 333 MF C3 9985 0.024689 12.011
8795 opls_156 333 MF H031 9988 0.0 1.008
8796 opls_156 333 MF H032 9989 0.0 1.008
8797 opls_910 333 MF H11 9990 0.0 1.008
8798 A 334 MF A1 9991 0.0 72.06679999999997
8799 opls_902 334 MF N11 9992 -0.407377 14.0067
8800 opls_145 334 MF C11 9993 0.682493 12.011
8801 opls_901 334 MF N21 9994 -0.299731 14.0067
8802 opls_157 334 MF C1 9995 0.024669 12.011
8803 opls_154 334 MF O1 9996 0.0 15.9994
8804 opls_156 334 MF H011 9998 0.0 1.008
8805 opls_156 334 MF H012 9999 0.0 1.008
8806 opls_910 334 MF H21 10000 0.0 1.008
8807 A 334 MF A2 10001 0.0 72.06679999999997
8808 opls_902 334 MF N12 10002 -0.407374 14.0067
8809 opls_145 334 MF C12 10003 0.682437 12.011
8810 opls_901 334 MF N22 10004 -0.299729 14.0067
8811 opls_157 334 MF C2 10005 0.024672 12.011
8812 opls_156 334 MF H021 10008 0.0 1.008
8813 opls_156 334 MF H022 10009 0.0 1.008
8814 opls_910 334 MF H31 10010 0.0 1.008
8815 A 334 MF A3 10011 0.0 72.06679999999997
8816 opls_902 334 MF N13 10012 -0.407483 14.0067
8817 opls_145 334 MF C13 10013 0.682492 12.011
8818 opls_901 334 MF N23 10014 -0.299758 14.0067
8819 opls_157 334 MF C3 10015 0.024689 12.011
8820 opls_154 334 MF O3 10016 0.0 15.9994
8821 opls_156 334 MF H031 10018 0.0 1.008
8822 opls_156 334 MF H032 10019 0.0 1.008
8823 opls_910 334 MF H11 10020 0.0 1.008
8824 A 335 MF A1 10021 0.0 72.06679999999997
8825 opls_902 335 MF N11 10022 -0.407377 14.0067
8826 opls_145 335 MF C11 10023 0.682493 12.011
8827 opls_901 335 MF N21 10024 -0.299731 14.0067
8828 opls_157 335 MF C1 10025 0.024669 12.011
8829 opls_156 335 MF H011 10028 0.0 1.008
8830 opls_156 335 MF H012 10029 0.0 1.008
8831 opls_910 335 MF H21 10030 0.0 1.008
8832 A 335 MF A2 10031 0.0 72.06679999999997
8833 opls_902 335 MF N12 10032 -0.407374 14.0067
8834 opls_145 335 MF C12 10033 0.682437 12.011
8835 opls_901 335 MF N22 10034 -0.299729 14.0067
8836 opls_157 335 MF C2 10035 0.024672 12.011
8837 opls_156 335 MF H021 10038 0.0 1.008
8838 opls_156 335 MF H022 10039 0.0 1.008
8839 opls_910 335 MF H31 10040 0.0 1.008
8840 A 335 MF A3 10041 0.0 72.06679999999997
8841 opls_902 335 MF N13 10042 -0.407483 14.0067
8842 opls_145 335 MF C13 10043 0.682492 12.011
8843 opls_901 335 MF N23 10044 -0.299758 14.0067
8844 opls_157 335 MF C3 10045 0.024689 12.011
8845 opls_154 335 MF O3 10046 0.0 15.9994
8846 opls_156 335 MF H031 10048 0.0 1.008
8847 opls_156 335 MF H032 10049 0.0 1.008
8848 opls_910 335 MF H11 10050 0.0 1.008
8849 A 336 MF A1 10051 0.0 72.06679999999997
8850 opls_902 336 MF N11 10052 -0.407377 14.0067
8851 opls_145 336 MF C11 10053 0.682493 12.011
8852 opls_901 336 MF N21 10054 -0.299731 14.0067
8853 opls_157 336 MF C1 10055 0.024669 12.011
8854 opls_156 336 MF H011 10058 0.0 1.008
8855 opls_156 336 MF H012 10059 0.0 1.008
8856 opls_910 336 MF H21 10060 0.0 1.008
8857 A 336 MF A2 10061 0.0 72.06679999999997
8858 opls_902 336 MF N12 10062 -0.407374 14.0067
8859 opls_145 336 MF C12 10063 0.682437 12.011
8860 opls_901 336 MF N22 10064 -0.299729 14.0067
8861 opls_157 336 MF C2 10065 0.024672 12.011
8862 opls_154 336 MF O2 10066 0.0 15.9994
8863 opls_156 336 MF H021 10068 0.0 1.008
8864 opls_156 336 MF H022 10069 0.0 1.008
8865 opls_910 336 MF H31 10070 0.0 1.008
8866 A 336 MF A3 10071 0.0 72.06679999999997
8867 opls_902 336 MF N13 10072 -0.407483 14.0067
8868 opls_145 336 MF C13 10073 0.682492 12.011
8869 opls_901 336 MF N23 10074 -0.299758 14.0067
8870 opls_157 336 MF C3 10075 0.024689 12.011
8871 opls_156 336 MF H031 10078 0.0 1.008
8872 opls_156 336 MF H032 10079 0.0 1.008
8873 opls_910 336 MF H11 10080 0.0 1.008
8874 A 337 MF A1 10081 0.0 72.06679999999997
8875 opls_902 337 MF N11 10082 -0.407377 14.0067
8876 opls_145 337 MF C11 10083 0.682493 12.011
8877 opls_901 337 MF N21 10084 -0.299731 14.0067
8878 opls_157 337 MF C1 10085 0.024669 12.011
8879 opls_154 337 MF O1 10086 0.0 15.9994
8880 opls_155 337 MF H01 10087 0.0 1.008
8881 opls_156 337 MF H011 10088 0.0 1.008
8882 opls_156 337 MF H012 10089 0.0 1.008
8883 opls_910 337 MF H21 10090 0.0 1.008
8884 A 337 MF A2 10091 0.0 72.06679999999997
8885 opls_902 337 MF N12 10092 -0.407374 14.0067
8886 opls_145 337 MF C12 10093 0.682437 12.011
8887 opls_901 337 MF N22 10094 -0.299729 14.0067
8888 opls_157 337 MF C2 10095 0.024672 12.011
8889 opls_156 337 MF H021 10098 0.0 1.008
8890 opls_156 337 MF H022 10099 0.0 1.008
8891 opls_910 337 MF H31 10100 0.0 1.008
8892 A 337 MF A3 10101 0.0 72.06679999999997
8893 opls_902 337 MF N13 10102 -0.407483 14.0067
8894 opls_145 337 MF C13 10103 0.682492 12.011
8895 opls_901 337 MF N23 10104 -0.299758 14.0067
8896 opls_157 337 MF C3 10105 0.024689 12.011
8897 opls_156 337 MF H031 10108 0.0 1.008
8898 opls_156 337 MF H032 10109 0.0 1.008
8899 opls_910 337 MF H11 10110 0.0 1.008
8900 A 338 MF A1 10111 0.0 72.06679999999997
8901 opls_902 338 MF N11 10112 -0.407377 14.0067
8902 opls_145 338 MF C11 10113 0.682493 12.011
8903 opls_901 338 MF N21 10114 -0.299731 14.0067
8904 opls_157 338 MF C1 10115 0.024669 12.011
8905 opls_156 338 MF H011 10118 0.0 1.008
8906 opls_156 338 MF H012 10119 0.0 1.008
8907 opls_910 338 MF H21 10120 0.0 1.008
8908 A 338 MF A2 10121 0.0 72.06679999999997
8909 opls_902 338 MF N12 10122 -0.407374 14.0067
8910 opls_145 338 MF C12 10123 0.682437 12.011
8911 opls_901 338 MF N22 10124 -0.299729 14.0067
8912 opls_157 338 MF C2 10125 0.024672 12.011
8913 opls_154 338 MF O2 10126 0.0 15.9994
8914 opls_156 338 MF H021 10128 0.0 1.008
8915 opls_156 338 MF H022 10129 0.0 1.008
8916 opls_910 338 MF H31 10130 0.0 1.008
8917 A 338 MF A3 10131 0.0 72.06679999999997
8918 opls_902 338 MF N13 10132 -0.407483 14.0067
8919 opls_145 338 MF C13 10133 0.682492 12.011
8920 opls_901 338 MF N23 10134 -0.299758 14.0067
8921 opls_157 338 MF C3 10135 0.024689 12.011
8922 opls_156 338 MF H031 10138 0.0 1.008
8923 opls_156 338 MF H032 10139 0.0 1.008
8924 opls_910 338 MF H11 10140 0.0 1.008
8925 A 339 MF A1 10141 0.0 72.06679999999997
8926 opls_902 339 MF N11 10142 -0.407377 14.0067
8927 opls_145 339 MF C11 10143 0.682493 12.011
8928 opls_901 339 MF N21 10144 -0.299731 14.0067
8929 opls_157 339 MF C1 10145 0.024669 12.011
8930 opls_154 339 MF O1 10146 0.0 15.9994
8931 opls_155 339 MF H01 10147 0.0 1.008
8932 opls_156 339 MF H011 10148 0.0 1.008
8933 opls_156 339 MF H012 10149 0.0 1.008
8934 opls_910 339 MF H21 10150 0.0 1.008
8935 A 339 MF A2 10151 0.0 72.06679999999997
8936 opls_902 339 MF N12 10152 -0.407374 14.0067
8937 opls_145 339 MF C12 10153 0.682437 12.011
8938 opls_901 339 MF N22 10154 -0.299729 14.0067
8939 opls_157 339 MF C2 10155 0.024672 12.011
8940 opls_154 339 MF O2 10156 0.0 15.9994
8941 opls_156 339 MF H021 10158 0.0 1.008
8942 opls_156 339 MF H022 10159 0.0 1.008
8943 opls_910 339 MF H31 10160 0.0 1.008
8944 A 339 MF A3 10161 0.0 72.06679999999997
8945 opls_902 339 MF N13 10162 -0.407483 14.0067
8946 opls_145 339 MF C13 10163 0.682492 12.011
8947 opls_901 339 MF N23 10164 -0.299758 14.0067
8948 opls_157 339 MF C3 10165 0.024689 12.011
8949 opls_156 339 MF H031 10168 0.0 1.008
8950 opls_156 339 MF H032 10169 0.0 1.008
8951 opls_910 339 MF H11 10170 0.0 1.008
8952 A 340 MF A1 10171 0.0 72.06679999999997
8953 opls_902 340 MF N11 10172 -0.407377 14.0067
8954 opls_145 340 MF C11 10173 0.682493 12.011
8955 opls_901 340 MF N21 10174 -0.299731 14.0067
8956 opls_157 340 MF C1 10175 0.024669 12.011
8957 opls_154 340 MF O1 10176 0.0 15.9994
8958 opls_156 340 MF H011 10178 0.0 1.008
8959 opls_156 340 MF H012 10179 0.0 1.008
8960 opls_910 340 MF H21 10180 0.0 1.008
8961 A 340 MF A2 10181 0.0 72.06679999999997
8962 opls_902 340 MF N12 10182 -0.407374 14.0067
8963 opls_145 340 MF C12 10183 0.682437 12.011
8964 opls_901 340 MF N22 10184 -0.299729 14.0067
8965 opls_157 340 MF C2 10185 0.024672 12.011
8966 opls_154 340 MF O2 10186 0.0 15.9994
8967 opls_156 340 MF H021 10188 0.0 1.008
8968 opls_156 340 MF H022 10189 0.0 1.008
8969 opls_910 340 MF H31 10190 0.0 1.008
8970 A 340 MF A3 10191 0.0 72.06679999999997
8971 opls_902 340 MF N13 10192 -0.407483 14.0067
8972 opls_145 340 MF C13 10193 0.682492 12.011
8973 opls_901 340 MF N23 10194 -0.299758 14.0067
8974 opls_157 340 MF C3 10195 0.024689 12.011
8975 opls_156 340 MF H031 10198 0.0 1.008
8976 opls_156 340 MF H032 10199 0.0 1.008
8977 opls_910 340 MF H11 10200 0.0 1.008
8978 A 341 MF A1 10201 0.0 72.06679999999997
8979 opls_902 341 MF N11 10202 -0.407377 14.0067
8980 opls_145 341 MF C11 10203 0.682493 12.011
8981 opls_901 341 MF N21 10204 -0.299731 14.0067
8982 opls_157 341 MF C1 10205 0.024669 12.011
8983 opls_156 341 MF H011 10208 0.0 1.008
8984 opls_156 341 MF H012 10209 0.0 1.008
8985 opls_910 341 MF H21 10210 0.0 1.008
8986 A 341 MF A2 10211 0.0 72.06679999999997
8987 opls_902 341 MF N12 10212 -0.407374 14.0067
8988 opls_145 341 MF C12 10213 0.682437 12.011
8989 opls_901 341 MF N22 10214 -0.299729 14.0067
8990 opls_157 341 MF C2 10215 0.024672 12.011
8991 opls_156 341 MF H021 10218 0.0 1.008
8992 opls_156 341 MF H022 10219 0.0 1.008
8993 opls_910 341 MF H31 10220 0.0 1.008
8994 A 341 MF A3 10221 0.0 72.06679999999997
8995 opls_902 341 MF N13 10222 -0.407483 14.0067
8996 opls_145 341 MF C13 10223 0.682492 12.011
8997 opls_901 341 MF N23 10224 -0.299758 14.0067
8998 opls_157 341 MF C3 10225 0.024689 12.011
8999 opls_156 341 MF H031 10228 0.0 1.008
9000 opls_156 341 MF H032 10229 0.0 1.008
9001 opls_910 341 MF H11 10230 0.0 1.008
9002 A 342 MF A1 10231 0.0 72.06679999999997
9003 opls_902 342 MF N11 10232 -0.407377 14.0067
9004 opls_145 342 MF C11 10233 0.682493 12.011
9005 opls_901 342 MF N21 10234 -0.299731 14.0067
9006 opls_157 342 MF C1 10235 0.024669 12.011
9007 opls_154 342 MF O1 10236 0.0 15.9994
9008 opls_155 342 MF H01 10237 0.0 1.008
9009 opls_156 342 MF H011 10238 0.0 1.008
9010 opls_156 342 MF H012 10239 0.0 1.008
9011 opls_910 342 MF H21 10240 0.0 1.008
9012 A 342 MF A2 10241 0.0 72.06679999999997
9013 opls_902 342 MF N12 10242 -0.407374 14.0067
9014 opls_145 342 MF C12 10243 0.682437 12.011
9015 opls_901 342 MF N22 10244 -0.299729 14.0067
9016 opls_157 342 MF C2 10245 0.024672 12.011
9017 opls_156 342 MF H021 10248 0.0 1.008
9018 opls_156 342 MF H022 10249 0.0 1.008
9019 opls_910 342 MF H31 10250 0.0 1.008
9020 A 342 MF A3 10251 0.0 72.06679999999997
9021 opls_902 342 MF N13 10252 -0.407483 14.0067
9022 opls_145 342 MF C13 10253 0.682492 12.011
9023 opls_901 342 MF N23 10254 -0.299758 14.0067
9024 opls_157 342 MF C3 10255 0.024689 12.011
9025 opls_156 342 MF H031 10258 0.0 1.008
9026 opls_156 342 MF H032 10259 0.0 1.008
9027 opls_910 342 MF H11 10260 0.0 1.008
9028 A 343 MF A1 10261 0.0 72.06679999999997
9029 opls_902 343 MF N11 10262 -0.407377 14.0067
9030 opls_145 343 MF C11 10263 0.682493 12.011
9031 opls_901 343 MF N21 10264 -0.299731 14.0067
9032 opls_157 343 MF C1 10265 0.024669 12.011
9033 opls_156 343 MF H011 10268 0.0 1.008
9034 opls_156 343 MF H012 10269 0.0 1.008
9035 opls_910 343 MF H21 10270 0.0 1.008
9036 A 343 MF A2 10271 0.0 72.06679999999997
9037 opls_902 343 MF N12 10272 -0.407374 14.0067
9038 opls_145 343 MF C12 10273 0.682437 12.011
9039 opls_901 343 MF N22 10274 -0.299729 14.0067
9040 opls_157 343 MF C2 10275 0.024672 12.011
9041 opls_154 343 MF O2 10276 0.0 15.9994
9042 opls_156 343 MF H021 10278 0.0 1.008
9043 opls_156 343 MF H022 10279 0.0 1.008
9044 opls_910 343 MF H31 10280 0.0 1.008
9045 A 343 MF A3 10281 0.0 72.06679999999997
9046 opls_902 343 MF N13 10282 -0.407483 14.0067
9047 opls_145 343 MF C13 10283 0.682492 12.011
9048 opls_901 343 MF N23 10284 -0.299758 14.0067
9049 opls_157 343 MF C3 10285 0.024689 12.011
9050 opls_156 343 MF H031 10288 0.0 1.008
9051 opls_156 343 MF H032 10289 0.0 1.008
9052 opls_910 343 MF H11 10290 0.0 1.008
9053 A 344 MF A1 10291 0.0 72.06679999999997
9054 opls_902 344 MF N11 10292 -0.407377 14.0067
9055 opls_145 344 MF C11 10293 0.682493 12.011
9056 opls_901 344 MF N21 10294 -0.299731 14.0067
9057 opls_157 344 MF C1 10295 0.024669 12.011
9058 opls_156 344 MF H011 10298 0.0 1.008
9059 opls_156 344 MF H012 10299 0.0 1.008
9060 opls_910 344 MF H21 10300 0.0 1.008
9061 A 344 MF A2 10301 0.0 72.06679999999997
9062 opls_902 344 MF N12 10302 -0.407374 14.0067
9063 opls_145 344 MF C12 10303 0.682437 12.011
9064 opls_901 344 MF N22 10304 -0.299729 14.0067
9065 opls_157 344 MF C2 10305 0.024672 12.011
9066 opls_156 344 MF H021 10308 0.0 1.008
9067 opls_156 344 MF H022 10309 0.0 1.008
9068 opls_910 344 MF H31 10310 0.0 1.008
9069 A 344 MF A3 10311 0.0 72.06679999999997
9070 opls_902 344 MF N13 10312 -0.407483 14.0067
9071 opls_145 344 MF C13 10313 0.682492 12.011
9072 opls_901 344 MF N23 10314 -0.299758 14.0067
9073 opls_157 344 MF C3 10315 0.024689 12.011
9074 opls_156 344 MF H031 10318 0.0 1.008
9075 opls_156 344 MF H032 10319 0.0 1.008
9076 opls_910 344 MF H11 10320 0.0 1.008
9077 A 345 MF A1 10321 0.0 72.06679999999997
9078 opls_902 345 MF N11 10322 -0.407377 14.0067
9079 opls_145 345 MF C11 10323 0.682493 12.011
9080 opls_901 345 MF N21 10324 -0.299731 14.0067
9081 opls_157 345 MF C1 10325 0.024669 12.011
9082 opls_156 345 MF H011 10328 0.0 1.008
9083 opls_156 345 MF H012 10329 0.0 1.008
9084 opls_910 345 MF H21 10330 0.0 1.008
9085 A 345 MF A2 10331 0.0 72.06679999999997
9086 opls_902 345 MF N12 10332 -0.407374 14.0067
9087 opls_145 345 MF C12 10333 0.682437 12.011
9088 opls_901 345 MF N22 10334 -0.299729 14.0067
9089 opls_157 345 MF C2 10335 0.024672 12.011
9090 opls_156 345 MF H021 10338 0.0 1.008
9091 opls_156 345 MF H022 10339 0.0 1.008
9092 opls_910 345 MF H31 10340 0.0 1.008
9093 A 345 MF A3 10341 0.0 72.06679999999997
9094 opls_902 345 MF N13 10342 -0.407483 14.0067
9095 opls_145 345 MF C13 10343 0.682492 12.011
9096 opls_901 345 MF N23 10344 -0.299758 14.0067
9097 opls_157 345 MF C3 10345 0.024689 12.011
9098 opls_154 345 MF O3 10346 0.0 15.9994
9099 opls_156 345 MF H031 10348 0.0 1.008
9100 opls_156 345 MF H032 10349 0.0 1.008
9101 opls_910 345 MF H11 10350 0.0 1.008
9102 A 346 MF A1 10351 0.0 72.06679999999997
9103 opls_902 346 MF N11 10352 -0.407377 14.0067
9104 opls_145 346 MF C11 10353 0.682493 12.011
9105 opls_901 346 MF N21 10354 -0.299731 14.0067
9106 opls_157 346 MF C1 10355 0.024669 12.011
9107 opls_156 346 MF H011 10358 0.0 1.008
9108 opls_156 346 MF H012 10359 0.0 1.008
9109 opls_910 346 MF H21 10360 0.0 1.008
9110 A 346 MF A2 10361 0.0 72.06679999999997
9111 opls_902 346 MF N12 10362 -0.407374 14.0067
9112 opls_145 346 MF C12 10363 0.682437 12.011
9113 opls_901 346 MF N22 10364 -0.299729 14.0067
9114 opls_157 346 MF C2 10365 0.024672 12.011
9115 opls_156 346 MF H021 10368 0.0 1.008
9116 opls_156 346 MF H022 10369 0.0 1.008
9117 opls_910 346 MF H31 10370 0.0 1.008
9118 A 346 MF A3 10371 0.0 72.06679999999997
9119 opls_902 346 MF N13 10372 -0.407483 14.0067
9120 opls_145 346 MF C13 10373 0.682492 12.011
9121 opls_901 346 MF N23 10374 -0.299758 14.0067
9122 opls_157 346 MF C3 10375 0.024689 12.011
9123 opls_154 346 MF O3 10376 0.0 15.9994
9124 opls_156 346 MF H031 10378 0.0 1.008
9125 opls_156 346 MF H032 10379 0.0 1.008
9126 opls_910 346 MF H11 10380 0.0 1.008
9127 A 347 MF A1 10381 0.0 72.06679999999997
9128 opls_902 347 MF N11 10382 -0.407377 14.0067
9129 opls_145 347 MF C11 10383 0.682493 12.011
9130 opls_901 347 MF N21 10384 -0.299731 14.0067
9131 opls_157 347 MF C1 10385 0.024669 12.011
9132 opls_156 347 MF H011 10388 0.0 1.008
9133 opls_156 347 MF H012 10389 0.0 1.008
9134 opls_910 347 MF H21 10390 0.0 1.008
9135 A 347 MF A2 10391 0.0 72.06679999999997
9136 opls_902 347 MF N12 10392 -0.407374 14.0067
9137 opls_145 347 MF C12 10393 0.682437 12.011
9138 opls_901 347 MF N22 10394 -0.299729 14.0067
9139 opls_157 347 MF C2 10395 0.024672 12.011
9140 opls_154 347 MF O2 10396 0.0 15.9994
9141 opls_155 347 MF H02 10397 0.0 1.008
9142 opls_156 347 MF H021 10398 0.0 1.008
9143 opls_156 347 MF H022 10399 0.0 1.008
9144 opls_910 347 MF H31 10400 0.0 1.008
9145 A 347 MF A3 10401 0.0 72.06679999999997
9146 opls_902 347 MF N13 10402 -0.407483 14.0067
9147 opls_145 347 MF C13 10403 0.682492 12.011
9148 opls_901 347 MF N23 10404 -0.299758 14.0067
9149 opls_157 347 MF C3 10405 0.024689 12.011
9150 opls_154 347 MF O3 10406 0.0 15.9994
9151 opls_155 347 MF H03 10407 0.0 1.008
9152 opls_156 347 MF H031 10408 0.0 1.008
9153 opls_156 347 MF H032 10409 0.0 1.008
9154 opls_910 347 MF H11 10410 0.0 1.008
9155 A 348 MF A1 10411 0.0 72.06679999999997
9156 opls_902 348 MF N11 10412 -0.407377 14.0067
9157 opls_145 348 MF C11 10413 0.682493 12.011
9158 opls_901 348 MF N21 10414 -0.299731 14.0067
9159 opls_157 348 MF C1 10415 0.024669 12.011
9160 opls_154 348 MF O1 10416 0.0 15.9994
9161 opls_156 348 MF H011 10418 0.0 1.008
9162 opls_156 348 MF H012 10419 0.0 1.008
9163 opls_910 348 MF H21 10420 0.0 1.008
9164 A 348 MF A2 10421 0.0 72.06679999999997
9165 opls_902 348 MF N12 10422 -0.407374 14.0067
9166 opls_145 348 MF C12 10423 0.682437 12.011
9167 opls_901 348 MF N22 10424 -0.299729 14.0067
9168 opls_157 348 MF C2 10425 0.024672 12.011
9169 opls_156 348 MF H021 10428 0.0 1.008
9170 opls_156 348 MF H022 10429 0.0 1.008
9171 opls_910 348 MF H31 10430 0.0 1.008
9172 A 348 MF A3 10431 0.0 72.06679999999997
9173 opls_902 348 MF N13 10432 -0.407483 14.0067
9174 opls_145 348 MF C13 10433 0.682492 12.011
9175 opls_901 348 MF N23 10434 -0.299758 14.0067
9176 opls_157 348 MF C3 10435 0.024689 12.011
9177 opls_156 348 MF H031 10438 0.0 1.008
9178 opls_156 348 MF H032 10439 0.0 1.008
9179 opls_910 348 MF H11 10440 0.0 1.008
9180 A 349 MF A1 10441 0.0 72.06679999999997
9181 opls_902 349 MF N11 10442 -0.407377 14.0067
9182 opls_145 349 MF C11 10443 0.682493 12.011
9183 opls_901 349 MF N21 10444 -0.299731 14.0067
9184 opls_157 349 MF C1 10445 0.024669 12.011
9185 opls_156 349 MF H011 10448 0.0 1.008
9186 opls_156 349 MF H012 10449 0.0 1.008
9187 opls_910 349 MF H21 10450 0.0 1.008
9188 A 349 MF A2 10451 0.0 72.06679999999997
9189 opls_902 349 MF N12 10452 -0.407374 14.0067
9190 opls_145 349 MF C12 10453 0.682437 12.011
9191 opls_901 349 MF N22 10454 -0.299729 14.0067
9192 opls_157 349 MF C2 10455 0.024672 12.011
9193 opls_156 349 MF H021 10458 0.0 1.008
9194 opls_156 349 MF H022 10459 0.0 1.008
9195 opls_910 349 MF H31 10460 0.0 1.008
9196 A 349 MF A3 10461 0.0 72.06679999999997
9197 opls_902 349 MF N13 10462 -0.407483 14.0067
9198 opls_145 349 MF C13 10463 0.682492 12.011
9199 opls_901 349 MF N23 10464 -0.299758 14.0067
9200 opls_157 349 MF C3 10465 0.024689 12.011
9201 opls_156 349 MF H031 10468 0.0 1.008
9202 opls_156 349 MF H032 10469 0.0 1.008
9203 opls_910 349 MF H11 10470 0.0 1.008
9204 A 350 MF A1 10471 0.0 72.06679999999997
9205 opls_902 350 MF N11 10472 -0.407377 14.0067
9206 opls_145 350 MF C11 10473 0.682493 12.011
9207 opls_901 350 MF N21 10474 -0.299731 14.0067
9208 opls_157 350 MF C1 10475 0.024669 12.011
9209 opls_154 350 MF O1 10476 0.0 15.9994
9210 opls_156 350 MF H011 10478 0.0 1.008
9211 opls_156 350 MF H012 10479 0.0 1.008
9212 opls_910 350 MF H21 10480 0.0 1.008
9213 A 350 MF A2 10481 0.0 72.06679999999997
9214 opls_902 350 MF N12 10482 -0.407374 14.0067
9215 opls_145 350 MF C12 10483 0.682437 12.011
9216 opls_901 350 MF N22 10484 -0.299729 14.0067
9217 opls_157 350 MF C2 10485 0.024672 12.011
9218 opls_156 350 MF H021 10488 0.0 1.008
9219 opls_156 350 MF H022 10489 0.0 1.008
9220 opls_910 350 MF H31 10490 0.0 1.008
9221 A 350 MF A3 10491 0.0 72.06679999999997
9222 opls_902 350 MF N13 10492 -0.407483 14.0067
9223 opls_145 350 MF C13 10493 0.682492 12.011
9224 opls_901 350 MF N23 10494 -0.299758 14.0067
9225 opls_157 350 MF C3 10495 0.024689 12.011
9226 opls_156 350 MF H031 10498 0.0 1.008
9227 opls_156 350 MF H032 10499 0.0 1.008
9228 opls_910 350 MF H11 10500 0.0 1.008
9229 A 351 MF A1 10501 0.0 72.06679999999997
9230 opls_902 351 MF N11 10502 -0.407377 14.0067
9231 opls_145 351 MF C11 10503 0.682493 12.011
9232 opls_901 351 MF N21 10504 -0.299731 14.0067
9233 opls_157 351 MF C1 10505 0.024669 12.011
9234 opls_156 351 MF H011 10508 0.0 1.008
9235 opls_156 351 MF H012 10509 0.0 1.008
9236 opls_910 351 MF H21 10510 0.0 1.008
9237 A 351 MF A2 10511 0.0 72.06679999999997
9238 opls_902 351 MF N12 10512 -0.407374 14.0067
9239 opls_145 351 MF C12 10513 0.682437 12.011
9240 opls_901 351 MF N22 10514 -0.299729 14.0067
9241 opls_157 351 MF C2 10515 0.024672 12.011
9242 opls_154 351 MF O2 10516 0.0 15.9994
9243 opls_156 351 MF H021 10518 0.0 1.008
9244 opls_156 351 MF H022 10519 0.0 1.008
9245 opls_910 351 MF H31 10520 0.0 1.008
9246 A 351 MF A3 10521 0.0 72.06679999999997
9247 opls_902 351 MF N13 10522 -0.407483 14.0067
9248 opls_145 351 MF C13 10523 0.682492 12.011
9249 opls_901 351 MF N23 10524 -0.299758 14.0067
9250 opls_157 351 MF C3 10525 0.024689 12.011
9251 opls_156 351 MF H031 10528 0.0 1.008
9252 opls_156 351 MF H032 10529 0.0 1.008
9253 opls_910 351 MF H11 10530 0.0 1.008
9254 A 352 MF A1 10531 0.0 72.06679999999997
9255 opls_902 352 MF N11 10532 -0.407377 14.0067
9256 opls_145 352 MF C11 10533 0.682493 12.011
9257 opls_901 352 MF N21 10534 -0.299731 14.0067
9258 opls_157 352 MF C1 10535 0.024669 12.011
9259 opls_156 352 MF H011 10538 0.0 1.008
9260 opls_156 352 MF H012 10539 0.0 1.008
9261 opls_910 352 MF H21 10540 0.0 1.008
9262 A 352 MF A2 10541 0.0 72.06679999999997
9263 opls_902 352 MF N12 10542 -0.407374 14.0067
9264 opls_145 352 MF C12 10543 0.682437 12.011
9265 opls_901 352 MF N22 10544 -0.299729 14.0067
9266 opls_157 352 MF C2 10545 0.024672 12.011
9267 opls_156 352 MF H021 10548 0.0 1.008
9268 opls_156 352 MF H022 10549 0.0 1.008
9269 opls_910 352 MF H31 10550 0.0 1.008
9270 A 352 MF A3 10551 0.0 72.06679999999997
9271 opls_902 352 MF N13 10552 -0.407483 14.0067
9272 opls_145 352 MF C13 10553 0.682492 12.011
9273 opls_901 352 MF N23 10554 -0.299758 14.0067
9274 opls_157 352 MF C3 10555 0.024689 12.011
9275 opls_156 352 MF H031 10558 0.0 1.008
9276 opls_156 352 MF H032 10559 0.0 1.008
9277 opls_910 352 MF H11 10560 0.0 1.008
9278 A 353 MF A1 10561 0.0 72.06679999999997
9279 opls_902 353 MF N11 10562 -0.407377 14.0067
9280 opls_145 353 MF C11 10563 0.682493 12.011
9281 opls_901 353 MF N21 10564 -0.299731 14.0067
9282 opls_157 353 MF C1 10565 0.024669 12.011
9283 opls_156 353 MF H011 10568 0.0 1.008
9284 opls_156 353 MF H012 10569 0.0 1.008
9285 opls_910 353 MF H21 10570 0.0 1.008
9286 A 353 MF A2 10571 0.0 72.06679999999997
9287 opls_902 353 MF N12 10572 -0.407374 14.0067
9288 opls_145 353 MF C12 10573 0.682437 12.011
9289 opls_901 353 MF N22 10574 -0.299729 14.0067
9290 opls_157 353 MF C2 10575 0.024672 12.011
9291 opls_156 353 MF H021 10578 0.0 1.008
9292 opls_156 353 MF H022 10579 0.0 1.008
9293 opls_910 353 MF H31 10580 0.0 1.008
9294 A 353 MF A3 10581 0.0 72.06679999999997
9295 opls_902 353 MF N13 10582 -0.407483 14.0067
9296 opls_145 353 MF C13 10583 0.682492 12.011
9297 opls_901 353 MF N23 10584 -0.299758 14.0067
9298 opls_157 353 MF C3 10585 0.024689 12.011
9299 opls_154 353 MF O3 10586 0.0 15.9994
9300 opls_155 353 MF H03 10587 0.0 1.008
9301 opls_156 353 MF H031 10588 0.0 1.008
9302 opls_156 353 MF H032 10589 0.0 1.008
9303 opls_910 353 MF H11 10590 0.0 1.008
9304 A 354 MF A1 10591 0.0 72.06679999999997
9305 opls_902 354 MF N11 10592 -0.407377 14.0067
9306 opls_145 354 MF C11 10593 0.682493 12.011
9307 opls_901 354 MF N21 10594 -0.299731 14.0067
9308 opls_157 354 MF C1 10595 0.024669 12.011
9309 opls_156 354 MF H011 10598 0.0 1.008
9310 opls_156 354 MF H012 10599 0.0 1.008
9311 opls_910 354 MF H21 10600 0.0 1.008
9312 A 354 MF A2 10601 0.0 72.06679999999997
9313 opls_902 354 MF N12 10602 -0.407374 14.0067
9314 opls_145 354 MF C12 10603 0.682437 12.011
9315 opls_901 354 MF N22 10604 -0.299729 14.0067
9316 opls_157 354 MF C2 10605 0.024672 12.011
9317 opls_154 354 MF O2 10606 0.0 15.9994
9318 opls_156 354 MF H021 10608 0.0 1.008
9319 opls_156 354 MF H022 10609 0.0 1.008
9320 opls_910 354 MF H31 10610 0.0 1.008
9321 A 354 MF A3 10611 0.0 72.06679999999997
9322 opls_902 354 MF N13 10612 -0.407483 14.0067
9323 opls_145 354 MF C13 10613 0.682492 12.011
9324 opls_901 354 MF N23 10614 -0.299758 14.0067
9325 opls_157 354 MF C3 10615 0.024689 12.011
9326 opls_154 354 MF O3 10616 0.0 15.9994
9327 opls_156 354 MF H031 10618 0.0 1.008
9328 opls_156 354 MF H032 10619 0.0 1.008
9329 opls_910 354 MF H11 10620 0.0 1.008
9330 A 355 MF A1 10621 0.0 72.06679999999997
9331 opls_902 355 MF N11 10622 -0.407377 14.0067
9332 opls_145 355 MF C11 10623 0.682493 12.011
9333 opls_901 355 MF N21 10624 -0.299731 14.0067
9334 opls_157 355 MF C1 10625 0.024669 12.011
9335 opls_156 355 MF H011 10628 0.0 1.008
9336 opls_156 355 MF H012 10629 0.0 1.008
9337 opls_910 355 MF H21 10630 0.0 1.008
9338 A 355 MF A2 10631 0.0 72.06679999999997
9339 opls_902 355 MF N12 10632 -0.407374 14.0067
9340 opls_145 355 MF C12 10633 0.682437 12.011
9341 opls_901 355 MF N22 10634 -0.299729 14.0067
9342 opls_157 355 MF C2 10635 0.024672 12.011
9343 opls_156 355 MF H021 10638 0.0 1.008
9344 opls_156 355 MF H022 10639 0.0 1.008
9345 opls_910 355 MF H31 10640 0.0 1.008
9346 A 355 MF A3 10641 0.0 72.06679999999997
9347 opls_902 355 MF N13 10642 -0.407483 14.0067
9348 opls_145 355 MF C13 10643 0.682492 12.011
9349 opls_901 355 MF N23 10644 -0.299758 14.0067
9350 opls_157 355 MF C3 10645 0.024689 12.011
9351 opls_154 355 MF O3 10646 0.0 15.9994
9352 opls_156 355 MF H031 10648 0.0 1.008
9353 opls_156 355 MF H032 10649 0.0 1.008
9354 opls_910 355 MF H11 10650 0.0 1.008
9355 A 356 MF A1 10651 0.0 72.06679999999997
9356 opls_902 356 MF N11 10652 -0.407377 14.0067
9357 opls_145 356 MF C11 10653 0.682493 12.011
9358 opls_901 356 MF N21 10654 -0.299731 14.0067
9359 opls_157 356 MF C1 10655 0.024669 12.011
9360 opls_156 356 MF H011 10658 0.0 1.008
9361 opls_156 356 MF H012 10659 0.0 1.008
9362 opls_910 356 MF H21 10660 0.0 1.008
9363 A 356 MF A2 10661 0.0 72.06679999999997
9364 opls_902 356 MF N12 10662 -0.407374 14.0067
9365 opls_145 356 MF C12 10663 0.682437 12.011
9366 opls_901 356 MF N22 10664 -0.299729 14.0067
9367 opls_157 356 MF C2 10665 0.024672 12.011
9368 opls_156 356 MF H021 10668 0.0 1.008
9369 opls_156 356 MF H022 10669 0.0 1.008
9370 opls_910 356 MF H31 10670 0.0 1.008
9371 A 356 MF A3 10671 0.0 72.06679999999997
9372 opls_902 356 MF N13 10672 -0.407483 14.0067
9373 opls_145 356 MF C13 10673 0.682492 12.011
9374 opls_901 356 MF N23 10674 -0.299758 14.0067
9375 opls_157 356 MF C3 10675 0.024689 12.011
9376 opls_154 356 MF O3 10676 0.0 15.9994
9377 opls_155 356 MF H03 10677 0.0 1.008
9378 opls_156 356 MF H031 10678 0.0 1.008
9379 opls_156 356 MF H032 10679 0.0 1.008
9380 opls_910 356 MF H11 10680 0.0 1.008
9381 A 357 MF A1 10681 0.0 72.06679999999997
9382 opls_902 357 MF N11 10682 -0.407377 14.0067
9383 opls_145 357 MF C11 10683 0.682493 12.011
9384 opls_901 357 MF N21 10684 -0.299731 14.0067
9385 opls_157 357 MF C1 10685 0.024669 12.011
9386 opls_154 357 MF O1 10686 0.0 15.9994
9387 opls_156 357 MF H011 10688 0.0 1.008
9388 opls_156 357 MF H012 10689 0.0 1.008
9389 opls_910 357 MF H21 10690 0.0 1.008
9390 A 357 MF A2 10691 0.0 72.06679999999997
9391 opls_902 357 MF N12 10692 -0.407374 14.0067
9392 opls_145 357 MF C12 10693 0.682437 12.011
9393 opls_901 357 MF N22 10694 -0.299729 14.0067
9394 opls_157 357 MF C2 10695 0.024672 12.011
9395 opls_156 357 MF H021 10698 0.0 1.008
9396 opls_156 357 MF H022 10699 0.0 1.008
9397 opls_910 357 MF H31 10700 0.0 1.008
9398 A 357 MF A3 10701 0.0 72.06679999999997
9399 opls_902 357 MF N13 10702 -0.407483 14.0067
9400 opls_145 357 MF C13 10703 0.682492 12.011
9401 opls_901 357 MF N23 10704 -0.299758 14.0067
9402 opls_157 357 MF C3 10705 0.024689 12.011
9403 opls_156 357 MF H031 10708 0.0 1.008
9404 opls_156 357 MF H032 10709 0.0 1.008
9405 opls_910 357 MF H11 10710 0.0 1.008
9406 A 358 MF A1 10711 0.0 72.06679999999997
9407 opls_902 358 MF N11 10712 -0.407377 14.0067
9408 opls_145 358 MF C11 10713 0.682493 12.011
9409 opls_901 358 MF N21 10714 -0.299731 14.0067
9410 opls_157 358 MF C1 10715 0.024669 12.011
9411 opls_156 358 MF H011 10718 0.0 1.008
9412 opls_156 358 MF H012 10719 0.0 1.008
9413 opls_910 358 MF H21 10720 0.0 1.008
9414 A 358 MF A2 10721 0.0 72.06679999999997
9415 opls_902 358 MF N12 10722 -0.407374 14.0067
9416 opls_145 358 MF C12 10723 0.682437 12.011
9417 opls_901 358 MF N22 10724 -0.299729 14.0067
9418 opls_157 358 MF C2 10725 0.024672 12.011
9419 opls_156 358 MF H021 10728 0.0 1.008
9420 opls_156 358 MF H022 10729 0.0 1.008
9421 opls_910 358 MF H31 10730 0.0 1.008
9422 A 358 MF A3 10731 0.0 72.06679999999997
9423 opls_902 358 MF N13 10732 -0.407483 14.0067
9424 opls_145 358 MF C13 10733 0.682492 12.011
9425 opls_901 358 MF N23 10734 -0.299758 14.0067
9426 opls_157 358 MF C3 10735 0.024689 12.011
9427 opls_156 358 MF H031 10738 0.0 1.008
9428 opls_156 358 MF H032 10739 0.0 1.008
9429 opls_910 358 MF H11 10740 0.0 1.008
9430 A 359 MF A1 10741 0.0 72.06679999999997
9431 opls_902 359 MF N11 10742 -0.407377 14.0067
9432 opls_145 359 MF C11 10743 0.682493 12.011
9433 opls_901 359 MF N21 10744 -0.299731 14.0067
9434 opls_157 359 MF C1 10745 0.024669 12.011
9435 opls_156 359 MF H011 10748 0.0 1.008
9436 opls_156 359 MF H012 10749 0.0 1.008
9437 opls_910 359 MF H21 10750 0.0 1.008
9438 A 359 MF A2 10751 0.0 72.06679999999997
9439 opls_902 359 MF N12 10752 -0.407374 14.0067
9440 opls_145 359 MF C12 10753 0.682437 12.011
9441 opls_901 359 MF N22 10754 -0.299729 14.0067
9442 opls_157 359 MF C2 10755 0.024672 12.011
9443 opls_154 359 MF O2 10756 0.0 15.9994
9444 opls_156 359 MF H021 10758 0.0 1.008
9445 opls_156 359 MF H022 10759 0.0 1.008
9446 opls_910 359 MF H31 10760 0.0 1.008
9447 A 359 MF A3 10761 0.0 72.06679999999997
9448 opls_902 359 MF N13 10762 -0.407483 14.0067
9449 opls_145 359 MF C13 10763 0.682492 12.011
9450 opls_901 359 MF N23 10764 -0.299758 14.0067
9451 opls_157 359 MF C3 10765 0.024689 12.011
9452 opls_156 359 MF H031 10768 0.0 1.008
9453 opls_156 359 MF H032 10769 0.0 1.008
9454 opls_910 359 MF H11 10770 0.0 1.008
9455 A 360 MF A1 10771 0.0 72.06679999999997
9456 opls_902 360 MF N11 10772 -0.407377 14.0067
9457 opls_145 360 MF C11 10773 0.682493 12.011
9458 opls_901 360 MF N21 10774 -0.299731 14.0067
9459 opls_157 360 MF C1 10775 0.024669 12.011
9460 opls_156 360 MF H011 10778 0.0 1.008
9461 opls_156 360 MF H012 10779 0.0 1.008
9462 opls_910 360 MF H21 10780 0.0 1.008
9463 A 360 MF A2 10781 0.0 72.06679999999997
9464 opls_902 360 MF N12 10782 -0.407374 14.0067
9465 opls_145 360 MF C12 10783 0.682437 12.011
9466 opls_901 360 MF N22 10784 -0.299729 14.0067
9467 opls_157 360 MF C2 10785 0.024672 12.011
9468 opls_156 360 MF H021 10788 0.0 1.008
9469 opls_156 360 MF H022 10789 0.0 1.008
9470 opls_910 360 MF H31 10790 0.0 1.008
9471 A 360 MF A3 10791 0.0 72.06679999999997
9472 opls_902 360 MF N13 10792 -0.407483 14.0067
9473 opls_145 360 MF C13 10793 0.682492 12.011
9474 opls_901 360 MF N23 10794 -0.299758 14.0067
9475 opls_157 360 MF C3 10795 0.024689 12.011
9476 opls_156 360 MF H031 10798 0.0 1.008
9477 opls_156 360 MF H032 10799 0.0 1.008
9478 opls_910 360 MF H11 10800 0.0 1.008
9479 A 361 MF A1 10801 0.0 72.06679999999997
9480 opls_902 361 MF N11 10802 -0.407377 14.0067
9481 opls_145 361 MF C11 10803 0.682493 12.011
9482 opls_901 361 MF N21 10804 -0.299731 14.0067
9483 opls_157 361 MF C1 10805 0.024669 12.011
9484 opls_154 361 MF O1 10806 0.0 15.9994
9485 opls_156 361 MF H011 10808 0.0 1.008
9486 opls_156 361 MF H012 10809 0.0 1.008
9487 opls_910 361 MF H21 10810 0.0 1.008
9488 A 361 MF A2 10811 0.0 72.06679999999997
9489 opls_902 361 MF N12 10812 -0.407374 14.0067
9490 opls_145 361 MF C12 10813 0.682437 12.011
9491 opls_901 361 MF N22 10814 -0.299729 14.0067
9492 opls_157 361 MF C2 10815 0.024672 12.011
9493 opls_154 361 MF O2 10816 0.0 15.9994
9494 opls_156 361 MF H021 10818 0.0 1.008
9495 opls_156 361 MF H022 10819 0.0 1.008
9496 opls_910 361 MF H31 10820 0.0 1.008
9497 A 361 MF A3 10821 0.0 72.06679999999997
9498 opls_902 361 MF N13 10822 -0.407483 14.0067
9499 opls_145 361 MF C13 10823 0.682492 12.011
9500 opls_901 361 MF N23 10824 -0.299758 14.0067
9501 opls_157 361 MF C3 10825 0.024689 12.011
9502 opls_156 361 MF H031 10828 0.0 1.008
9503 opls_156 361 MF H032 10829 0.0 1.008
9504 opls_910 361 MF H11 10830 0.0 1.008
9505 A 362 MF A1 10831 0.0 72.06679999999997
9506 opls_902 362 MF N11 10832 -0.407377 14.0067
9507 opls_145 362 MF C11 10833 0.682493 12.011
9508 opls_901 362 MF N21 10834 -0.299731 14.0067
9509 opls_157 362 MF C1 10835 0.024669 12.011
9510 opls_154 362 MF O1 10836 0.0 15.9994
9511 opls_156 362 MF H011 10838 0.0 1.008
9512 opls_156 362 MF H012 10839 0.0 1.008
9513 opls_910 362 MF H21 10840 0.0 1.008
9514 A 362 MF A2 10841 0.0 72.06679999999997
9515 opls_902 362 MF N12 10842 -0.407374 14.0067
9516 opls_145 362 MF C12 10843 0.682437 12.011
9517 opls_901 362 MF N22 10844 -0.299729 14.0067
9518 opls_157 362 MF C2 10845 0.024672 12.011
9519 opls_154 362 MF O2 10846 0.0 15.9994
9520 opls_156 362 MF H021 10848 0.0 1.008
9521 opls_156 362 MF H022 10849 0.0 1.008
9522 opls_910 362 MF H31 10850 0.0 1.008
9523 A 362 MF A3 10851 0.0 72.06679999999997
9524 opls_902 362 MF N13 10852 -0.407483 14.0067
9525 opls_145 362 MF C13 10853 0.682492 12.011
9526 opls_901 362 MF N23 10854 -0.299758 14.0067
9527 opls_157 362 MF C3 10855 0.024689 12.011
9528 opls_156 362 MF H031 10858 0.0 1.008
9529 opls_156 362 MF H032 10859 0.0 1.008
9530 opls_910 362 MF H11 10860 0.0 1.008
9531 A 363 MF A1 10861 0.0 72.06679999999997
9532 opls_902 363 MF N11 10862 -0.407377 14.0067
9533 opls_145 363 MF C11 10863 0.682493 12.011
9534 opls_901 363 MF N21 10864 -0.299731 14.0067
9535 opls_157 363 MF C1 10865 0.024669 12.011
9536 opls_154 363 MF O1 10866 0.0 15.9994
9537 opls_156 363 MF H011 10868 0.0 1.008
9538 opls_156 363 MF H012 10869 0.0 1.008
9539 opls_910 363 MF H21 10870 0.0 1.008
9540 A 363 MF A2 10871 0.0 72.06679999999997
9541 opls_902 363 MF N12 10872 -0.407374 14.0067
9542 opls_145 363 MF C12 10873 0.682437 12.011
9543 opls_901 363 MF N22 10874 -0.299729 14.0067
9544 opls_157 363 MF C2 10875 0.024672 12.011
9545 opls_156 363 MF H021 10878 0.0 1.008
9546 opls_156 363 MF H022 10879 0.0 1.008
9547 opls_910 363 MF H31 10880 0.0 1.008
9548 A 363 MF A3 10881 0.0 72.06679999999997
9549 opls_902 363 MF N13 10882 -0.407483 14.0067
9550 opls_145 363 MF C13 10883 0.682492 12.011
9551 opls_901 363 MF N23 10884 -0.299758 14.0067
9552 opls_157 363 MF C3 10885 0.024689 12.011
9553 opls_154 363 MF O3 10886 0.0 15.9994
9554 opls_156 363 MF H031 10888 0.0 1.008
9555 opls_156 363 MF H032 10889 0.0 1.008
9556 opls_910 363 MF H11 10890 0.0 1.008
9557 A 364 MF A1 10891 0.0 72.06679999999997
9558 opls_902 364 MF N11 10892 -0.407377 14.0067
9559 opls_145 364 MF C11 10893 0.682493 12.011
9560 opls_901 364 MF N21 10894 -0.299731 14.0067
9561 opls_157 364 MF C1 10895 0.024669 12.011
9562 opls_156 364 MF H011 10898 0.0 1.008
9563 opls_156 364 MF H012 10899 0.0 1.008
9564 opls_910 364 MF H21 10900 0.0 1.008
9565 A 364 MF A2 10901 0.0 72.06679999999997
9566 opls_902 364 MF N12 10902 -0.407374 14.0067
9567 opls_145 364 MF C12 10903 0.682437 12.011
9568 opls_901 364 MF N22 10904 -0.299729 14.0067
9569 opls_157 364 MF C2 10905 0.024672 12.011
9570 opls_154 364 MF O2 10906 0.0 15.9994
9571 opls_156 364 MF H021 10908 0.0 1.008
9572 opls_156 364 MF H022 10909 0.0 1.008
9573 opls_910 364 MF H31 10910 0.0 1.008
9574 A 364 MF A3 10911 0.0 72.06679999999997
9575 opls_902 364 MF N13 10912 -0.407483 14.0067
9576 opls_145 364 MF C13 10913 0.682492 12.011
9577 opls_901 364 MF N23 10914 -0.299758 14.0067
9578 opls_157 364 MF C3 10915 0.024689 12.011
9579 opls_154 364 MF O3 10916 0.0 15.9994
9580 opls_155 364 MF H03 10917 0.0 1.008
9581 opls_156 364 MF H031 10918 0.0 1.008
9582 opls_156 364 MF H032 10919 0.0 1.008
9583 opls_910 364 MF H11 10920 0.0 1.008
9584 A 365 MF A1 10921 0.0 72.06679999999997
9585 opls_902 365 MF N11 10922 -0.407377 14.0067
9586 opls_145 365 MF C11 10923 0.682493 12.011
9587 opls_901 365 MF N21 10924 -0.299731 14.0067
9588 opls_157 365 MF C1 10925 0.024669 12.011
9589 opls_154 365 MF O1 10926 0.0 15.9994
9590 opls_156 365 MF H011 10928 0.0 1.008
9591 opls_156 365 MF H012 10929 0.0 1.008
9592 opls_910 365 MF H21 10930 0.0 1.008
9593 A 365 MF A2 10931 0.0 72.06679999999997
9594 opls_902 365 MF N12 10932 -0.407374 14.0067
9595 opls_145 365 MF C12 10933 0.682437 12.011
9596 opls_901 365 MF N22 10934 -0.299729 14.0067
9597 opls_157 365 MF C2 10935 0.024672 12.011
9598 opls_154 365 MF O2 10936 0.0 15.9994
9599 opls_156 365 MF H021 10938 0.0 1.008
9600 opls_156 365 MF H022 10939 0.0 1.008
9601 opls_910 365 MF H31 10940 0.0 1.008
9602 A 365 MF A3 10941 0.0 72.06679999999997
9603 opls_902 365 MF N13 10942 -0.407483 14.0067
9604 opls_145 365 MF C13 10943 0.682492 12.011
9605 opls_901 365 MF N23 10944 -0.299758 14.0067
9606 opls_157 365 MF C3 10945 0.024689 12.011
9607 opls_156 365 MF H031 10948 0.0 1.008
9608 opls_156 365 MF H032 10949 0.0 1.008
9609 opls_910 365 MF H11 10950 0.0 1.008
9610 A 366 MF A1 10951 0.0 72.06679999999997
9611 opls_902 366 MF N11 10952 -0.407377 14.0067
9612 opls_145 366 MF C11 10953 0.682493 12.011
9613 opls_901 366 MF N21 10954 -0.299731 14.0067
9614 opls_157 366 MF C1 10955 0.024669 12.011
9615 opls_156 366 MF H011 10958 0.0 1.008
9616 opls_156 366 MF H012 10959 0.0 1.008
9617 opls_910 366 MF H21 10960 0.0 1.008
9618 A 366 MF A2 10961 0.0 72.06679999999997
9619 opls_902 366 MF N12 10962 -0.407374 14.0067
9620 opls_145 366 MF C12 10963 0.682437 12.011
9621 opls_901 366 MF N22 10964 -0.299729 14.0067
9622 opls_157 366 MF C2 10965 0.024672 12.011
9623 opls_156 366 MF H021 10968 0.0 1.008
9624 opls_156 366 MF H022 10969 0.0 1.008
9625 opls_910 366 MF H31 10970 0.0 1.008
9626 A 366 MF A3 10971 0.0 72.06679999999997
9627 opls_902 366 MF N13 10972 -0.407483 14.0067
9628 opls_145 366 MF C13 10973 0.682492 12.011
9629 opls_901 366 MF N23 10974 -0.299758 14.0067
9630 opls_157 366 MF C3 10975 0.024689 12.011
9631 opls_156 366 MF H031 10978 0.0 1.008
9632 opls_156 366 MF H032 10979 0.0 1.008
9633 opls_910 366 MF H11 10980 0.0 1.008
9634 A 367 MF A1 10981 0.0 72.06679999999997
9635 opls_902 367 MF N11 10982 -0.407377 14.0067
9636 opls_145 367 MF C11 10983 0.682493 12.011
9637 opls_901 367 MF N21 10984 -0.299731 14.0067
9638 opls_157 367 MF C1 10985 0.024669 12.011
9639 opls_156 367 MF H011 10988 0.0 1.008
9640 opls_156 367 MF H012 10989 0.0 1.008
9641 opls_910 367 MF H21 10990 0.0 1.008
9642 A 367 MF A2 10991 0.0 72.06679999999997
9643 opls_902 367 MF N12 10992 -0.407374 14.0067
9644 opls_145 367 MF C12 10993 0.682437 12.011
9645 opls_901 367 MF N22 10994 -0.299729 14.0067
9646 opls_157 367 MF C2 10995 0.024672 12.011
9647 opls_154 367 MF O2 10996 0.0 15.9994
9648 opls_155 367 MF H02 10997 0.0 1.008
9649 opls_156 367 MF H021 10998 0.0 1.008
9650 opls_156 367 MF H022 10999 0.0 1.008
9651 opls_910 367 MF H31 11000 0.0 1.008
9652 A 367 MF A3 11001 0.0 72.06679999999997
9653 opls_902 367 MF N13 11002 -0.407483 14.0067
9654 opls_145 367 MF C13 11003 0.682492 12.011
9655 opls_901 367 MF N23 11004 -0.299758 14.0067
9656 opls_157 367 MF C3 11005 0.024689 12.011
9657 opls_156 367 MF H031 11008 0.0 1.008
9658 opls_156 367 MF H032 11009 0.0 1.008
9659 opls_910 367 MF H11 11010 0.0 1.008
9660 A 368 MF A1 11011 0.0 72.06679999999997
9661 opls_902 368 MF N11 11012 -0.407377 14.0067
9662 opls_145 368 MF C11 11013 0.682493 12.011
9663 opls_901 368 MF N21 11014 -0.299731 14.0067
9664 opls_157 368 MF C1 11015 0.024669 12.011
9665 opls_156 368 MF H011 11018 0.0 1.008
9666 opls_156 368 MF H012 11019 0.0 1.008
9667 opls_910 368 MF H21 11020 0.0 1.008
9668 A 368 MF A2 11021 0.0 72.06679999999997
9669 opls_902 368 MF N12 11022 -0.407374 14.0067
9670 opls_145 368 MF C12 11023 0.682437 12.011
9671 opls_901 368 MF N22 11024 -0.299729 14.0067
9672 opls_157 368 MF C2 11025 0.024672 12.011
9673 opls_156 368 MF H021 11028 0.0 1.008
9674 opls_156 368 MF H022 11029 0.0 1.008
9675 opls_910 368 MF H31 11030 0.0 1.008
9676 A 368 MF A3 11031 0.0 72.06679999999997
9677 opls_902 368 MF N13 11032 -0.407483 14.0067
9678 opls_145 368 MF C13 11033 0.682492 12.011
9679 opls_901 368 MF N23 11034 -0.299758 14.0067
9680 opls_157 368 MF C3 11035 0.024689 12.011
9681 opls_156 368 MF H031 11038 0.0 1.008
9682 opls_156 368 MF H032 11039 0.0 1.008
9683 opls_910 368 MF H11 11040 0.0 1.008
9684 A 369 MF A1 11041 0.0 72.06679999999997
9685 opls_902 369 MF N11 11042 -0.407377 14.0067
9686 opls_145 369 MF C11 11043 0.682493 12.011
9687 opls_901 369 MF N21 11044 -0.299731 14.0067
9688 opls_157 369 MF C1 11045 0.024669 12.011
9689 opls_156 369 MF H011 11048 0.0 1.008
9690 opls_156 369 MF H012 11049 0.0 1.008
9691 opls_910 369 MF H21 11050 0.0 1.008
9692 A 369 MF A2 11051 0.0 72.06679999999997
9693 opls_902 369 MF N12 11052 -0.407374 14.0067
9694 opls_145 369 MF C12 11053 0.682437 12.011
9695 opls_901 369 MF N22 11054 -0.299729 14.0067
9696 opls_157 369 MF C2 11055 0.024672 12.011
9697 opls_156 369 MF H021 11058 0.0 1.008
9698 opls_156 369 MF H022 11059 0.0 1.008
9699 opls_910 369 MF H31 11060 0.0 1.008
9700 A 369 MF A3 11061 0.0 72.06679999999997
9701 opls_902 369 MF N13 11062 -0.407483 14.0067
9702 opls_145 369 MF C13 11063 0.682492 12.011
9703 opls_901 369 MF N23 11064 -0.299758 14.0067
9704 opls_157 369 MF C3 11065 0.024689 12.011
9705 opls_156 369 MF H031 11068 0.0 1.008
9706 opls_156 369 MF H032 11069 0.0 1.008
9707 opls_910 369 MF H11 11070 0.0 1.008
9708 A 370 MF A1 11071 0.0 72.06679999999997
9709 opls_902 370 MF N11 11072 -0.407377 14.0067
9710 opls_145 370 MF C11 11073 0.682493 12.011
9711 opls_901 370 MF N21 11074 -0.299731 14.0067
9712 opls_157 370 MF C1 11075 0.024669 12.011
9713 opls_154 370 MF O1 11076 0.0 15.9994
9714 opls_156 370 MF H011 11078 0.0 1.008
9715 opls_156 370 MF H012 11079 0.0 1.008
9716 opls_910 370 MF H21 11080 0.0 1.008
9717 A 370 MF A2 11081 0.0 72.06679999999997
9718 opls_902 370 MF N12 11082 -0.407374 14.0067
9719 opls_145 370 MF C12 11083 0.682437 12.011
9720 opls_901 370 MF N22 11084 -0.299729 14.0067
9721 opls_157 370 MF C2 11085 0.024672 12.011
9722 opls_156 370 MF H021 11088 0.0 1.008
9723 opls_156 370 MF H022 11089 0.0 1.008
9724 opls_910 370 MF H31 11090 0.0 1.008
9725 A 370 MF A3 11091 0.0 72.06679999999997
9726 opls_902 370 MF N13 11092 -0.407483 14.0067
9727 opls_145 370 MF C13 11093 0.682492 12.011
9728 opls_901 370 MF N23 11094 -0.299758 14.0067
9729 opls_157 370 MF C3 11095 0.024689 12.011
9730 opls_156 370 MF H031 11098 0.0 1.008
9731 opls_156 370 MF H032 11099 0.0 1.008
9732 opls_910 370 MF H11 11100 0.0 1.008
9733 A 371 MF A1 11101 0.0 72.06679999999997
9734 opls_902 371 MF N11 11102 -0.407377 14.0067
9735 opls_145 371 MF C11 11103 0.682493 12.011
9736 opls_901 371 MF N21 11104 -0.299731 14.0067
9737 opls_157 371 MF C1 11105 0.024669 12.011
9738 opls_156 371 MF H011 11108 0.0 1.008
9739 opls_156 371 MF H012 11109 0.0 1.008
9740 opls_910 371 MF H21 11110 0.0 1.008
9741 A 371 MF A2 11111 0.0 72.06679999999997
9742 opls_902 371 MF N12 11112 -0.407374 14.0067
9743 opls_145 371 MF C12 11113 0.682437 12.011
9744 opls_901 371 MF N22 11114 -0.299729 14.0067
9745 opls_157 371 MF C2 11115 0.024672 12.011
9746 opls_154 371 MF O2 11116 0.0 15.9994
9747 opls_156 371 MF H021 11118 0.0 1.008
9748 opls_156 371 MF H022 11119 0.0 1.008
9749 opls_910 371 MF H31 11120 0.0 1.008
9750 A 371 MF A3 11121 0.0 72.06679999999997
9751 opls_902 371 MF N13 11122 -0.407483 14.0067
9752 opls_145 371 MF C13 11123 0.682492 12.011
9753 opls_901 371 MF N23 11124 -0.299758 14.0067
9754 opls_157 371 MF C3 11125 0.024689 12.011
9755 opls_156 371 MF H031 11128 0.0 1.008
9756 opls_156 371 MF H032 11129 0.0 1.008
9757 opls_910 371 MF H11 11130 0.0 1.008
9758 A 372 MF A1 11131 0.0 72.06679999999997
9759 opls_902 372 MF N11 11132 -0.407377 14.0067
9760 opls_145 372 MF C11 11133 0.682493 12.011
9761 opls_901 372 MF N21 11134 -0.299731 14.0067
9762 opls_157 372 MF C1 11135 0.024669 12.011
9763 opls_154 372 MF O1 11136 0.0 15.9994
9764 opls_155 372 MF H01 11137 0.0 1.008
9765 opls_156 372 MF H011 11138 0.0 1.008
9766 opls_156 372 MF H012 11139 0.0 1.008
9767 opls_910 372 MF H21 11140 0.0 1.008
9768 A 372 MF A2 11141 0.0 72.06679999999997
9769 opls_902 372 MF N12 11142 -0.407374 14.0067
9770 opls_145 372 MF C12 11143 0.682437 12.011
9771 opls_901 372 MF N22 11144 -0.299729 14.0067
9772 opls_157 372 MF C2 11145 0.024672 12.011
9773 opls_154 372 MF O2 11146 0.0 15.9994
9774 opls_156 372 MF H021 11148 0.0 1.008
9775 opls_156 372 MF H022 11149 0.0 1.008
9776 opls_910 372 MF H31 11150 0.0 1.008
9777 A 372 MF A3 11151 0.0 72.06679999999997
9778 opls_902 372 MF N13 11152 -0.407483 14.0067
9779 opls_145 372 MF C13 11153 0.682492 12.011
9780 opls_901 372 MF N23 11154 -0.299758 14.0067
9781 opls_157 372 MF C3 11155 0.024689 12.011
9782 opls_156 372 MF H031 11158 0.0 1.008
9783 opls_156 372 MF H032 11159 0.0 1.008
9784 opls_910 372 MF H11 11160 0.0 1.008
9785 A 373 MF A1 11161 0.0 72.06679999999997
9786 opls_902 373 MF N11 11162 -0.407377 14.0067
9787 opls_145 373 MF C11 11163 0.682493 12.011
9788 opls_901 373 MF N21 11164 -0.299731 14.0067
9789 opls_157 373 MF C1 11165 0.024669 12.011
9790 opls_154 373 MF O1 11166 0.0 15.9994
9791 opls_156 373 MF H011 11168 0.0 1.008
9792 opls_156 373 MF H012 11169 0.0 1.008
9793 opls_910 373 MF H21 11170 0.0 1.008
9794 A 373 MF A2 11171 0.0 72.06679999999997
9795 opls_902 373 MF N12 11172 -0.407374 14.0067
9796 opls_145 373 MF C12 11173 0.682437 12.011
9797 opls_901 373 MF N22 11174 -0.299729 14.0067
9798 opls_157 373 MF C2 11175 0.024672 12.011
9799 opls_154 373 MF O2 11176 0.0 15.9994
9800 opls_155 373 MF H02 11177 0.0 1.008
9801 opls_156 373 MF H021 11178 0.0 1.008
9802 opls_156 373 MF H022 11179 0.0 1.008
9803 opls_910 373 MF H31 11180 0.0 1.008
9804 A 373 MF A3 11181 0.0 72.06679999999997
9805 opls_902 373 MF N13 11182 -0.407483 14.0067
9806 opls_145 373 MF C13 11183 0.682492 12.011
9807 opls_901 373 MF N23 11184 -0.299758 14.0067
9808 opls_157 373 MF C3 11185 0.024689 12.011
9809 opls_154 373 MF O3 11186 0.0 15.9994
9810 opls_155 373 MF H03 11187 0.0 1.008
9811 opls_156 373 MF H031 11188 0.0 1.008
9812 opls_156 373 MF H032 11189 0.0 1.008
9813 opls_910 373 MF H11 11190 0.0 1.008
9814 A 374 MF A1 11191 0.0 72.06679999999997
9815 opls_902 374 MF N11 11192 -0.407377 14.0067
9816 opls_145 374 MF C11 11193 0.682493 12.011
9817 opls_901 374 MF N21 11194 -0.299731 14.0067
9818 opls_157 374 MF C1 11195 0.024669 12.011
9819 opls_154 374 MF O1 11196 0.0 15.9994
9820 opls_156 374 MF H011 11198 0.0 1.008
9821 opls_156 374 MF H012 11199 0.0 1.008
9822 opls_910 374 MF H21 11200 0.0 1.008
9823 A 374 MF A2 11201 0.0 72.06679999999997
9824 opls_902 374 MF N12 11202 -0.407374 14.0067
9825 opls_145 374 MF C12 11203 0.682437 12.011
9826 opls_901 374 MF N22 11204 -0.299729 14.0067
9827 opls_157 374 MF C2 11205 0.024672 12.011
9828 opls_154 374 MF O2 11206 0.0 15.9994
9829 opls_156 374 MF H021 11208 0.0 1.008
9830 opls_156 374 MF H022 11209 0.0 1.008
9831 opls_910 374 MF H31 11210 0.0 1.008
9832 A 374 MF A3 11211 0.0 72.06679999999997
9833 opls_902 374 MF N13 11212 -0.407483 14.0067
9834 opls_145 374 MF C13 11213 0.682492 12.011
9835 opls_901 374 MF N23 11214 -0.299758 14.0067
9836 opls_157 374 MF C3 11215 0.024689 12.011
9837 opls_156 374 MF H031 11218 0.0 1.008
9838 opls_156 374 MF H032 11219 0.0 1.008
9839 opls_910 374 MF H11 11220 0.0 1.008
9840 A 375 MF A1 11221 0.0 72.06679999999997
9841 opls_902 375 MF N11 11222 -0.407377 14.0067
9842 opls_145 375 MF C11 11223 0.682493 12.011
9843 opls_901 375 MF N21 11224 -0.299731 14.0067
9844 opls_157 375 MF C1 11225 0.024669 12.011
9845 opls_154 375 MF O1 11226 0.0 15.9994
9846 opls_156 375 MF H011 11228 0.0 1.008
9847 opls_156 375 MF H012 11229 0.0 1.008
9848 opls_910 375 MF H21 11230 0.0 1.008
9849 A 375 MF A2 11231 0.0 72.06679999999997
9850 opls_902 375 MF N12 11232 -0.407374 14.0067
9851 opls_145 375 MF C12 11233 0.682437 12.011
9852 opls_901 375 MF N22 11234 -0.299729 14.0067
9853 opls_157 375 MF C2 11235 0.024672 12.011
9854 opls_156 375 MF H021 11238 0.0 1.008
9855 opls_156 375 MF H022 11239 0.0 1.008
9856 opls_910 375 MF H31 11240 0.0 1.008
9857 A 375 MF A3 11241 0.0 72.06679999999997
9858 opls_902 375 MF N13 11242 -0.407483 14.0067
9859 opls_145 375 MF C13 11243 0.682492 12.011
9860 opls_901 375 MF N23 11244 -0.299758 14.0067
9861 opls_157 375 MF C3 11245 0.024689 12.011
9862 opls_154 375 MF O3 11246 0.0 15.9994
9863 opls_156 375 MF H031 11248 0.0 1.008
9864 opls_156 375 MF H032 11249 0.0 1.008
9865 opls_910 375 MF H11 11250 0.0 1.008
9866 A 376 MF A1 11251 0.0 72.06679999999997
9867 opls_902 376 MF N11 11252 -0.407377 14.0067
9868 opls_145 376 MF C11 11253 0.682493 12.011
9869 opls_901 376 MF N21 11254 -0.299731 14.0067
9870 opls_157 376 MF C1 11255 0.024669 12.011
9871 opls_156 376 MF H011 11258 0.0 1.008
9872 opls_156 376 MF H012 11259 0.0 1.008
9873 opls_910 376 MF H21 11260 0.0 1.008
9874 A 376 MF A2 11261 0.0 72.06679999999997
9875 opls_902 376 MF N12 11262 -0.407374 14.0067
9876 opls_145 376 MF C12 11263 0.682437 12.011
9877 opls_901 376 MF N22 11264 -0.299729 14.0067
9878 opls_157 376 MF C2 11265 0.024672 12.011
9879 opls_154 376 MF O2 11266 0.0 15.9994
9880 opls_155 376 MF H02 11267 0.0 1.008
9881 opls_156 376 MF H021 11268 0.0 1.008
9882 opls_156 376 MF H022 11269 0.0 1.008
9883 opls_910 376 MF H31 11270 0.0 1.008
9884 A 376 MF A3 11271 0.0 72.06679999999997
9885 opls_902 376 MF N13 11272 -0.407483 14.0067
9886 opls_145 376 MF C13 11273 0.682492 12.011
9887 opls_901 376 MF N23 11274 -0.299758 14.0067
9888 opls_157 376 MF C3 11275 0.024689 12.011
9889 opls_156 376 MF H031 11278 0.0 1.008
9890 opls_156 376 MF H032 11279 0.0 1.008
9891 opls_910 376 MF H11 11280 0.0 1.008
9892 A 377 MF A1 11281 0.0 72.06679999999997
9893 opls_902 377 MF N11 11282 -0.407377 14.0067
9894 opls_145 377 MF C11 11283 0.682493 12.011
9895 opls_901 377 MF N21 11284 -0.299731 14.0067
9896 opls_157 377 MF C1 11285 0.024669 12.011
9897 opls_156 377 MF H011 11288 0.0 1.008
9898 opls_156 377 MF H012 11289 0.0 1.008
9899 opls_910 377 MF H21 11290 0.0 1.008
9900 A 377 MF A2 11291 0.0 72.06679999999997
9901 opls_902 377 MF N12 11292 -0.407374 14.0067
9902 opls_145 377 MF C12 11293 0.682437 12.011
9903 opls_901 377 MF N22 11294 -0.299729 14.0067
9904 opls_157 377 MF C2 11295 0.024672 12.011
9905 opls_156 377 MF H021 11298 0.0 1.008
9906 opls_156 377 MF H022 11299 0.0 1.008
9907 opls_910 377 MF H31 11300 0.0 1.008
9908 A 377 MF A3 11301 0.0 72.06679999999997
9909 opls_902 377 MF N13 11302 -0.407483 14.0067
9910 opls_145 377 MF C13 11303 0.682492 12.011
9911 opls_901 377 MF N23 11304 -0.299758 14.0067
9912 opls_157 377 MF C3 11305 0.024689 12.011
9913 opls_154 377 MF O3 11306 0.0 15.9994
9914 opls_156 377 MF H031 11308 0.0 1.008
9915 opls_156 377 MF H032 11309 0.0 1.008
9916 opls_910 377 MF H11 11310 0.0 1.008
9917 A 378 MF A1 11311 0.0 72.06679999999997
9918 opls_902 378 MF N11 11312 -0.407377 14.0067
9919 opls_145 378 MF C11 11313 0.682493 12.011
9920 opls_901 378 MF N21 11314 -0.299731 14.0067
9921 opls_157 378 MF C1 11315 0.024669 12.011
9922 opls_156 378 MF H011 11318 0.0 1.008
9923 opls_156 378 MF H012 11319 0.0 1.008
9924 opls_910 378 MF H21 11320 0.0 1.008
9925 A 378 MF A2 11321 0.0 72.06679999999997
9926 opls_902 378 MF N12 11322 -0.407374 14.0067
9927 opls_145 378 MF C12 11323 0.682437 12.011
9928 opls_901 378 MF N22 11324 -0.299729 14.0067
9929 opls_157 378 MF C2 11325 0.024672 12.011
9930 opls_156 378 MF H021 11328 0.0 1.008
9931 opls_156 378 MF H022 11329 0.0 1.008
9932 opls_910 378 MF H31 11330 0.0 1.008
9933 A 378 MF A3 11331 0.0 72.06679999999997
9934 opls_902 378 MF N13 11332 -0.407483 14.0067
9935 opls_145 378 MF C13 11333 0.682492 12.011
9936 opls_901 378 MF N23 11334 -0.299758 14.0067
9937 opls_157 378 MF C3 11335 0.024689 12.011
9938 opls_154 378 MF O3 11336 0.0 15.9994
9939 opls_156 378 MF H031 11338 0.0 1.008
9940 opls_156 378 MF H032 11339 0.0 1.008
9941 opls_910 378 MF H11 11340 0.0 1.008
9942 A 379 MF A1 11341 0.0 72.06679999999997
9943 opls_902 379 MF N11 11342 -0.407377 14.0067
9944 opls_145 379 MF C11 11343 0.682493 12.011
9945 opls_901 379 MF N21 11344 -0.299731 14.0067
9946 opls_157 379 MF C1 11345 0.024669 12.011
9947 opls_156 379 MF H011 11348 0.0 1.008
9948 opls_156 379 MF H012 11349 0.0 1.008
9949 opls_910 379 MF H21 11350 0.0 1.008
9950 A 379 MF A2 11351 0.0 72.06679999999997
9951 opls_902 379 MF N12 11352 -0.407374 14.0067
9952 opls_145 379 MF C12 11353 0.682437 12.011
9953 opls_901 379 MF N22 11354 -0.299729 14.0067
9954 opls_157 379 MF C2 11355 0.024672 12.011
9955 opls_156 379 MF H021 11358 0.0 1.008
9956 opls_156 379 MF H022 11359 0.0 1.008
9957 opls_910 379 MF H31 11360 0.0 1.008
9958 A 379 MF A3 11361 0.0 72.06679999999997
9959 opls_902 379 MF N13 11362 -0.407483 14.0067
9960 opls_145 379 MF C13 11363 0.682492 12.011
9961 opls_901 379 MF N23 11364 -0.299758 14.0067
9962 opls_157 379 MF C3 11365 0.024689 12.011
9963 opls_156 379 MF H031 11368 0.0 1.008
9964 opls_156 379 MF H032 11369 0.0 1.008
9965 opls_910 379 MF H11 11370 0.0 1.008
9966 A 380 MF A1 11371 0.0 72.06679999999997
9967 opls_902 380 MF N11 11372 -0.407377 14.0067
9968 opls_145 380 MF C11 11373 0.682493 12.011
9969 opls_901 380 MF N21 11374 -0.299731 14.0067
9970 opls_157 380 MF C1 11375 0.024669 12.011
9971 opls_156 380 MF H011 11378 0.0 1.008
9972 opls_156 380 MF H012 11379 0.0 1.008
9973 opls_910 380 MF H21 11380 0.0 1.008
9974 A 380 MF A2 11381 0.0 72.06679999999997
9975 opls_902 380 MF N12 11382 -0.407374 14.0067
9976 opls_145 380 MF C12 11383 0.682437 12.011
9977 opls_901 380 MF N22 11384 -0.299729 14.0067
9978 opls_157 380 MF C2 11385 0.024672 12.011
9979 opls_156 380 MF H021 11388 0.0 1.008
9980 opls_156 380 MF H022 11389 0.0 1.008
9981 opls_910 380 MF H31 11390 0.0 1.008
9982 A 380 MF A3 11391 0.0 72.06679999999997
9983 opls_902 380 MF N13 11392 -0.407483 14.0067
9984 opls_145 380 MF C13 11393 0.682492 12.011
9985 opls_901 380 MF N23 11394 -0.299758 14.0067
9986 opls_157 380 MF C3 11395 0.024689 12.011
9987 opls_154 380 MF O3 11396 0.0 15.9994
9988 opls_156 380 MF H031 11398 0.0 1.008
9989 opls_156 380 MF H032 11399 0.0 1.008
9990 opls_910 380 MF H11 11400 0.0 1.008
9991 A 381 MF A1 11401 0.0 72.06679999999997
9992 opls_902 381 MF N11 11402 -0.407377 14.0067
9993 opls_145 381 MF C11 11403 0.682493 12.011
9994 opls_901 381 MF N21 11404 -0.299731 14.0067
9995 opls_157 381 MF C1 11405 0.024669 12.011
9996 opls_156 381 MF H011 11408 0.0 1.008
9997 opls_156 381 MF H012 11409 0.0 1.008
9998 opls_910 381 MF H21 11410 0.0 1.008
9999 A 381 MF A2 11411 0.0 72.06679999999997
10000 opls_902 381 MF N12 11412 -0.407374 14.0067
10001 opls_145 381 MF C12 11413 0.682437 12.011
10002 opls_901 381 MF N22 11414 -0.299729 14.0067
10003 opls_157 381 MF C2 11415 0.024672 12.011
10004 opls_154 381 MF O2 11416 0.0 15.9994
10005 opls_156 381 MF H021 11418 0.0 1.008
10006 opls_156 381 MF H022 11419 0.0 1.008
10007 opls_910 381 MF H31 11420 0.0 1.008
10008 A 381 MF A3 11421 0.0 72.06679999999997
10009 opls_902 381 MF N13 11422 -0.407483 14.0067
10010 opls_145 381 MF C13 11423 0.682492 12.011
10011 opls_901 381 MF N23 11424 -0.299758 14.0067
10012 opls_157 381 MF C3 11425 0.024689 12.011
10013 opls_156 381 MF H031 11428 0.0 1.008
10014 opls_156 381 MF H032 11429 0.0 1.008
10015 opls_910 381 MF H11 11430 0.0 1.008
10016 A 382 MF A1 11431 0.0 72.06679999999997
10017 opls_902 382 MF N11 11432 -0.407377 14.0067
10018 opls_145 382 MF C11 11433 0.682493 12.011
10019 opls_901 382 MF N21 11434 -0.299731 14.0067
10020 opls_157 382 MF C1 11435 0.024669 12.011
10021 opls_156 382 MF H011 11438 0.0 1.008
10022 opls_156 382 MF H012 11439 0.0 1.008
10023 opls_910 382 MF H21 11440 0.0 1.008
10024 A 382 MF A2 11441 0.0 72.06679999999997
10025 opls_902 382 MF N12 11442 -0.407374 14.0067
10026 opls_145 382 MF C12 11443 0.682437 12.011
10027 opls_901 382 MF N22 11444 -0.299729 14.0067
10028 opls_157 382 MF C2 11445 0.024672 12.011
10029 opls_156 382 MF H021 11448 0.0 1.008
10030 opls_156 382 MF H022 11449 0.0 1.008
10031 opls_910 382 MF H31 11450 0.0 1.008
10032 A 382 MF A3 11451 0.0 72.06679999999997
10033 opls_902 382 MF N13 11452 -0.407483 14.0067
10034 opls_145 382 MF C13 11453 0.682492 12.011
10035 opls_901 382 MF N23 11454 -0.299758 14.0067
10036 opls_157 382 MF C3 11455 0.024689 12.011
10037 opls_154 382 MF O3 11456 0.0 15.9994
10038 opls_156 382 MF H031 11458 0.0 1.008
10039 opls_156 382 MF H032 11459 0.0 1.008
10040 opls_910 382 MF H11 11460 0.0 1.008
10041 A 383 MF A1 11461 0.0 72.06679999999997
10042 opls_902 383 MF N11 11462 -0.407377 14.0067
10043 opls_145 383 MF C11 11463 0.682493 12.011
10044 opls_901 383 MF N21 11464 -0.299731 14.0067
10045 opls_157 383 MF C1 11465 0.024669 12.011
10046 opls_156 383 MF H011 11468 0.0 1.008
10047 opls_156 383 MF H012 11469 0.0 1.008
10048 opls_910 383 MF H21 11470 0.0 1.008
10049 A 383 MF A2 11471 0.0 72.06679999999997
10050 opls_902 383 MF N12 11472 -0.407374 14.0067
10051 opls_145 383 MF C12 11473 0.682437 12.011
10052 opls_901 383 MF N22 11474 -0.299729 14.0067
10053 opls_157 383 MF C2 11475 0.024672 12.011
10054 opls_156 383 MF H021 11478 0.0 1.008
10055 opls_156 383 MF H022 11479 0.0 1.008
10056 opls_910 383 MF H31 11480 0.0 1.008
10057 A 383 MF A3 11481 0.0 72.06679999999997
10058 opls_902 383 MF N13 11482 -0.407483 14.0067
10059 opls_145 383 MF C13 11483 0.682492 12.011
10060 opls_901 383 MF N23 11484 -0.299758 14.0067
10061 opls_157 383 MF C3 11485 0.024689 12.011
10062 opls_156 383 MF H031 11488 0.0 1.008
10063 opls_156 383 MF H032 11489 0.0 1.008
10064 opls_910 383 MF H11 11490 0.0 1.008
10065 A 384 MF A1 11491 0.0 72.06679999999997
10066 opls_902 384 MF N11 11492 -0.407377 14.0067
10067 opls_145 384 MF C11 11493 0.682493 12.011
10068 opls_901 384 MF N21 11494 -0.299731 14.0067
10069 opls_157 384 MF C1 11495 0.024669 12.011
10070 opls_154 384 MF O1 11496 0.0 15.9994
10071 opls_156 384 MF H011 11498 0.0 1.008
10072 opls_156 384 MF H012 11499 0.0 1.008
10073 opls_910 384 MF H21 11500 0.0 1.008
10074 A 384 MF A2 11501 0.0 72.06679999999997
10075 opls_902 384 MF N12 11502 -0.407374 14.0067
10076 opls_145 384 MF C12 11503 0.682437 12.011
10077 opls_901 384 MF N22 11504 -0.299729 14.0067
10078 opls_157 384 MF C2 11505 0.024672 12.011
10079 opls_156 384 MF H021 11508 0.0 1.008
10080 opls_156 384 MF H022 11509 0.0 1.008
10081 opls_910 384 MF H31 11510 0.0 1.008
10082 A 384 MF A3 11511 0.0 72.06679999999997
10083 opls_902 384 MF N13 11512 -0.407483 14.0067
10084 opls_145 384 MF C13 11513 0.682492 12.011
10085 opls_901 384 MF N23 11514 -0.299758 14.0067
10086 opls_157 384 MF C3 11515 0.024689 12.011
10087 opls_156 384 MF H031 11518 0.0 1.008
10088 opls_156 384 MF H032 11519 0.0 1.008
10089 opls_910 384 MF H11 11520 0.0 1.008
10090 A 385 MF A1 11521 0.0 72.06679999999997
10091 opls_902 385 MF N11 11522 -0.407377 14.0067
10092 opls_145 385 MF C11 11523 0.682493 12.011
10093 opls_901 385 MF N21 11524 -0.299731 14.0067
10094 opls_157 385 MF C1 11525 0.024669 12.011
10095 opls_156 385 MF H011 11528 0.0 1.008
10096 opls_156 385 MF H012 11529 0.0 1.008
10097 opls_910 385 MF H21 11530 0.0 1.008
10098 A 385 MF A2 11531 0.0 72.06679999999997
10099 opls_902 385 MF N12 11532 -0.407374 14.0067
10100 opls_145 385 MF C12 11533 0.682437 12.011
10101 opls_901 385 MF N22 11534 -0.299729 14.0067
10102 opls_157 385 MF C2 11535 0.024672 12.011
10103 opls_156 385 MF H021 11538 0.0 1.008
10104 opls_156 385 MF H022 11539 0.0 1.008
10105 opls_910 385 MF H31 11540 0.0 1.008
10106 A 385 MF A3 11541 0.0 72.06679999999997
10107 opls_902 385 MF N13 11542 -0.407483 14.0067
10108 opls_145 385 MF C13 11543 0.682492 12.011
10109 opls_901 385 MF N23 11544 -0.299758 14.0067
10110 opls_157 385 MF C3 11545 0.024689 12.011
10111 opls_156 385 MF H031 11548 0.0 1.008
10112 opls_156 385 MF H032 11549 0.0 1.008
10113 opls_910 385 MF H11 11550 0.0 1.008
10114 A 386 MF A1 11551 0.0 72.06679999999997
10115 opls_902 386 MF N11 11552 -0.407377 14.0067
10116 opls_145 386 MF C11 11553 0.682493 12.011
10117 opls_901 386 MF N21 11554 -0.299731 14.0067
10118 opls_157 386 MF C1 11555 0.024669 12.011
10119 opls_154 386 MF O1 11556 0.0 15.9994
10120 opls_156 386 MF H011 11558 0.0 1.008
10121 opls_156 386 MF H012 11559 0.0 1.008
10122 opls_910 386 MF H21 11560 0.0 1.008
10123 A 386 MF A2 11561 0.0 72.06679999999997
10124 opls_902 386 MF N12 11562 -0.407374 14.0067
10125 opls_145 386 MF C12 11563 0.682437 12.011
10126 opls_901 386 MF N22 11564 -0.299729 14.0067
10127 opls_157 386 MF C2 11565 0.024672 12.011
10128 opls_156 386 MF H021 11568 0.0 1.008
10129 opls_156 386 MF H022 11569 0.0 1.008
10130 opls_910 386 MF H31 11570 0.0 1.008
10131 A 386 MF A3 11571 0.0 72.06679999999997
10132 opls_902 386 MF N13 11572 -0.407483 14.0067
10133 opls_145 386 MF C13 11573 0.682492 12.011
10134 opls_901 386 MF N23 11574 -0.299758 14.0067
10135 opls_157 386 MF C3 11575 0.024689 12.011
10136 opls_156 386 MF H031 11578 0.0 1.008
10137 opls_156 386 MF H032 11579 0.0 1.008
10138 opls_910 386 MF H11 11580 0.0 1.008
10139 A 387 MF A1 11581 0.0 72.06679999999997
10140 opls_902 387 MF N11 11582 -0.407377 14.0067
10141 opls_145 387 MF C11 11583 0.682493 12.011
10142 opls_901 387 MF N21 11584 -0.299731 14.0067
10143 opls_157 387 MF C1 11585 0.024669 12.011
10144 opls_156 387 MF H011 11588 0.0 1.008
10145 opls_156 387 MF H012 11589 0.0 1.008
10146 opls_910 387 MF H21 11590 0.0 1.008
10147 A 387 MF A2 11591 0.0 72.06679999999997
10148 opls_902 387 MF N12 11592 -0.407374 14.0067
10149 opls_145 387 MF C12 11593 0.682437 12.011
10150 opls_901 387 MF N22 11594 -0.299729 14.0067
10151 opls_157 387 MF C2 11595 0.024672 12.011
10152 opls_156 387 MF H021 11598 0.0 1.008
10153 opls_156 387 MF H022 11599 0.0 1.008
10154 opls_910 387 MF H31 11600 0.0 1.008
10155 A 387 MF A3 11601 0.0 72.06679999999997
10156 opls_902 387 MF N13 11602 -0.407483 14.0067
10157 opls_145 387 MF C13 11603 0.682492 12.011
10158 opls_901 387 MF N23 11604 -0.299758 14.0067
10159 opls_157 387 MF C3 11605 0.024689 12.011
10160 opls_156 387 MF H031 11608 0.0 1.008
10161 opls_156 387 MF H032 11609 0.0 1.008
10162 opls_910 387 MF H11 11610 0.0 1.008
10163 A 388 MF A1 11611 0.0 72.06679999999997
10164 opls_902 388 MF N11 11612 -0.407377 14.0067
10165 opls_145 388 MF C11 11613 0.682493 12.011
10166 opls_901 388 MF N21 11614 -0.299731 14.0067
10167 opls_157 388 MF C1 11615 0.024669 12.011
10168 opls_156 388 MF H011 11618 0.0 1.008
10169 opls_156 388 MF H012 11619 0.0 1.008
10170 opls_910 388 MF H21 11620 0.0 1.008
10171 A 388 MF A2 11621 0.0 72.06679999999997
10172 opls_902 388 MF N12 11622 -0.407374 14.0067
10173 opls_145 388 MF C12 11623 0.682437 12.011
10174 opls_901 388 MF N22 11624 -0.299729 14.0067
10175 opls_157 388 MF C2 11625 0.024672 12.011
10176 opls_156 388 MF H021 11628 0.0 1.008
10177 opls_156 388 MF H022 11629 0.0 1.008
10178 opls_910 388 MF H31 11630 0.0 1.008
10179 A 388 MF A3 11631 0.0 72.06679999999997
10180 opls_902 388 MF N13 11632 -0.407483 14.0067
10181 opls_145 388 MF C13 11633 0.682492 12.011
10182 opls_901 388 MF N23 11634 -0.299758 14.0067
10183 opls_157 388 MF C3 11635 0.024689 12.011
10184 opls_156 388 MF H031 11638 0.0 1.008
10185 opls_156 388 MF H032 11639 0.0 1.008
10186 opls_910 388 MF H11 11640 0.0 1.008
10187 A 389 MF A1 11641 0.0 72.06679999999997
10188 opls_902 389 MF N11 11642 -0.407377 14.0067
10189 opls_145 389 MF C11 11643 0.682493 12.011
10190 opls_901 389 MF N21 11644 -0.299731 14.0067
10191 opls_157 389 MF C1 11645 0.024669 12.011
10192 opls_156 389 MF H011 11648 0.0 1.008
10193 opls_156 389 MF H012 11649 0.0 1.008
10194 opls_910 389 MF H21 11650 0.0 1.008
10195 A 389 MF A2 11651 0.0 72.06679999999997
10196 opls_902 389 MF N12 11652 -0.407374 14.0067
10197 opls_145 389 MF C12 11653 0.682437 12.011
10198 opls_901 389 MF N22 11654 -0.299729 14.0067
10199 opls_157 389 MF C2 11655 0.024672 12.011
10200 opls_154 389 MF O2 11656 0.0 15.9994
10201 opls_155 389 MF H02 11657 0.0 1.008
10202 opls_156 389 MF H021 11658 0.0 1.008
10203 opls_156 389 MF H022 11659 0.0 1.008
10204 opls_910 389 MF H31 11660 0.0 1.008
10205 A 389 MF A3 11661 0.0 72.06679999999997
10206 opls_902 389 MF N13 11662 -0.407483 14.0067
10207 opls_145 389 MF C13 11663 0.682492 12.011
10208 opls_901 389 MF N23 11664 -0.299758 14.0067
10209 opls_157 389 MF C3 11665 0.024689 12.011
10210 opls_156 389 MF H031 11668 0.0 1.008
10211 opls_156 389 MF H032 11669 0.0 1.008
10212 opls_910 389 MF H11 11670 0.0 1.008
10213 A 390 MF A1 11671 0.0 72.06679999999997
10214 opls_902 390 MF N11 11672 -0.407377 14.0067
10215 opls_145 390 MF C11 11673 0.682493 12.011
10216 opls_901 390 MF N21 11674 -0.299731 14.0067
10217 opls_157 390 MF C1 11675 0.024669 12.011
10218 opls_156 390 MF H011 11678 0.0 1.008
10219 opls_156 390 MF H012 11679 0.0 1.008
10220 opls_910 390 MF H21 11680 0.0 1.008
10221 A 390 MF A2 11681 0.0 72.06679999999997
10222 opls_902 390 MF N12 11682 -0.407374 14.0067
10223 opls_145 390 MF C12 11683 0.682437 12.011
10224 opls_901 390 MF N22 11684 -0.299729 14.0067
10225 opls_157 390 MF C2 11685 0.024672 12.011
10226 opls_154 390 MF O2 11686 0.0 15.9994
10227 opls_155 390 MF H02 11687 0.0 1.008
10228 opls_156 390 MF H021 11688 0.0 1.008
10229 opls_156 390 MF H022 11689 0.0 1.008
10230 opls_910 390 MF H31 11690 0.0 1.008
10231 A 390 MF A3 11691 0.0 72.06679999999997
10232 opls_902 390 MF N13 11692 -0.407483 14.0067
10233 opls_145 390 MF C13 11693 0.682492 12.011
10234 opls_901 390 MF N23 11694 -0.299758 14.0067
10235 opls_157 390 MF C3 11695 0.024689 12.011
10236 opls_156 390 MF H031 11698 0.0 1.008
10237 opls_156 390 MF H032 11699 0.0 1.008
10238 opls_910 390 MF H11 11700 0.0 1.008
10239 A 391 MF A1 11701 0.0 72.06679999999997
10240 opls_902 391 MF N11 11702 -0.407377 14.0067
10241 opls_145 391 MF C11 11703 0.682493 12.011
10242 opls_901 391 MF N21 11704 -0.299731 14.0067
10243 opls_157 391 MF C1 11705 0.024669 12.011
10244 opls_156 391 MF H011 11708 0.0 1.008
10245 opls_156 391 MF H012 11709 0.0 1.008
10246 opls_910 391 MF H21 11710 0.0 1.008
10247 A 391 MF A2 11711 0.0 72.06679999999997
10248 opls_902 391 MF N12 11712 -0.407374 14.0067
10249 opls_145 391 MF C12 11713 0.682437 12.011
10250 opls_901 391 MF N22 11714 -0.299729 14.0067
10251 opls_157 391 MF C2 11715 0.024672 12.011
10252 opls_154 391 MF O2 11716 0.0 15.9994
10253 opls_156 391 MF H021 11718 0.0 1.008
10254 opls_156 391 MF H022 11719 0.0 1.008
10255 opls_910 391 MF H31 11720 0.0 1.008
10256 A 391 MF A3 11721 0.0 72.06679999999997
10257 opls_902 391 MF N13 11722 -0.407483 14.0067
10258 opls_145 391 MF C13 11723 0.682492 12.011
10259 opls_901 391 MF N23 11724 -0.299758 14.0067
10260 opls_157 391 MF C3 11725 0.024689 12.011
10261 opls_156 391 MF H031 11728 0.0 1.008
10262 opls_156 391 MF H032 11729 0.0 1.008
10263 opls_910 391 MF H11 11730 0.0 1.008
10264 A 392 MF A1 11731 0.0 72.06679999999997
10265 opls_902 392 MF N11 11732 -0.407377 14.0067
10266 opls_145 392 MF C11 11733 0.682493 12.011
10267 opls_901 392 MF N21 11734 -0.299731 14.0067
10268 opls_157 392 MF C1 11735 0.024669 12.011
10269 opls_156 392 MF H011 11738 0.0 1.008
10270 opls_156 392 MF H012 11739 0.0 1.008
10271 opls_910 392 MF H21 11740 0.0 1.008
10272 A 392 MF A2 11741 0.0 72.06679999999997
10273 opls_902 392 MF N12 11742 -0.407374 14.0067
10274 opls_145 392 MF C12 11743 0.682437 12.011
10275 opls_901 392 MF N22 11744 -0.299729 14.0067
10276 opls_157 392 MF C2 11745 0.024672 12.011
10277 opls_156 392 MF H021 11748 0.0 1.008
10278 opls_156 392 MF H022 11749 0.0 1.008
10279 opls_910 392 MF H31 11750 0.0 1.008
10280 A 392 MF A3 11751 0.0 72.06679999999997
10281 opls_902 392 MF N13 11752 -0.407483 14.0067
10282 opls_145 392 MF C13 11753 0.682492 12.011
10283 opls_901 392 MF N23 11754 -0.299758 14.0067
10284 opls_157 392 MF C3 11755 0.024689 12.011
10285 opls_156 392 MF H031 11758 0.0 1.008
10286 opls_156 392 MF H032 11759 0.0 1.008
10287 opls_910 392 MF H11 11760 0.0 1.008
10288 A 393 MF A1 11761 0.0 72.06679999999997
10289 opls_902 393 MF N11 11762 -0.407377 14.0067
10290 opls_145 393 MF C11 11763 0.682493 12.011
10291 opls_901 393 MF N21 11764 -0.299731 14.0067
10292 opls_157 393 MF C1 11765 0.024669 12.011
10293 opls_156 393 MF H011 11768 0.0 1.008
10294 opls_156 393 MF H012 11769 0.0 1.008
10295 opls_910 393 MF H21 11770 0.0 1.008
10296 A 393 MF A2 11771 0.0 72.06679999999997
10297 opls_902 393 MF N12 11772 -0.407374 14.0067
10298 opls_145 393 MF C12 11773 0.682437 12.011
10299 opls_901 393 MF N22 11774 -0.299729 14.0067
10300 opls_157 393 MF C2 11775 0.024672 12.011
10301 opls_156 393 MF H021 11778 0.0 1.008
10302 opls_156 393 MF H022 11779 0.0 1.008
10303 opls_910 393 MF H31 11780 0.0 1.008
10304 A 393 MF A3 11781 0.0 72.06679999999997
10305 opls_902 393 MF N13 11782 -0.407483 14.0067
10306 opls_145 393 MF C13 11783 0.682492 12.011
10307 opls_901 393 MF N23 11784 -0.299758 14.0067
10308 opls_157 393 MF C3 11785 0.024689 12.011
10309 opls_154 393 MF O3 11786 0.0 15.9994
10310 opls_156 393 MF H031 11788 0.0 1.008
10311 opls_156 393 MF H032 11789 0.0 1.008
10312 opls_910 393 MF H11 11790 0.0 1.008
10313 A 394 MF A1 11791 0.0 72.06679999999997
10314 opls_902 394 MF N11 11792 -0.407377 14.0067
10315 opls_145 394 MF C11 11793 0.682493 12.011
10316 opls_901 394 MF N21 11794 -0.299731 14.0067
10317 opls_157 394 MF C1 11795 0.024669 12.011
10318 opls_156 394 MF H011 11798 0.0 1.008
10319 opls_156 394 MF H012 11799 0.0 1.008
10320 opls_910 394 MF H21 11800 0.0 1.008
10321 A 394 MF A2 11801 0.0 72.06679999999997
10322 opls_902 394 MF N12 11802 -0.407374 14.0067
10323 opls_145 394 MF C12 11803 0.682437 12.011
10324 opls_901 394 MF N22 11804 -0.299729 14.0067
10325 opls_157 394 MF C2 11805 0.024672 12.011
10326 opls_156 394 MF H021 11808 0.0 1.008
10327 opls_156 394 MF H022 11809 0.0 1.008
10328 opls_910 394 MF H31 11810 0.0 1.008
10329 A 394 MF A3 11811 0.0 72.06679999999997
10330 opls_902 394 MF N13 11812 -0.407483 14.0067
10331 opls_145 394 MF C13 11813 0.682492 12.011
10332 opls_901 394 MF N23 11814 -0.299758 14.0067
10333 opls_157 394 MF C3 11815 0.024689 12.011
10334 opls_156 394 MF H031 11818 0.0 1.008
10335 opls_156 394 MF H032 11819 0.0 1.008
10336 opls_910 394 MF H11 11820 0.0 1.008
10337 A 395 MF A1 11821 0.0 72.06679999999997
10338 opls_902 395 MF N11 11822 -0.407377 14.0067
10339 opls_145 395 MF C11 11823 0.682493 12.011
10340 opls_901 395 MF N21 11824 -0.299731 14.0067
10341 opls_157 395 MF C1 11825 0.024669 12.011
10342 opls_156 395 MF H011 11828 0.0 1.008
10343 opls_156 395 MF H012 11829 0.0 1.008
10344 opls_910 395 MF H21 11830 0.0 1.008
10345 A 395 MF A2 11831 0.0 72.06679999999997
10346 opls_902 395 MF N12 11832 -0.407374 14.0067
10347 opls_145 395 MF C12 11833 0.682437 12.011
10348 opls_901 395 MF N22 11834 -0.299729 14.0067
10349 opls_157 395 MF C2 11835 0.024672 12.011
10350 opls_156 395 MF H021 11838 0.0 1.008
10351 opls_156 395 MF H022 11839 0.0 1.008
10352 opls_910 395 MF H31 11840 0.0 1.008
10353 A 395 MF A3 11841 0.0 72.06679999999997
10354 opls_902 395 MF N13 11842 -0.407483 14.0067
10355 opls_145 395 MF C13 11843 0.682492 12.011
10356 opls_901 395 MF N23 11844 -0.299758 14.0067
10357 opls_157 395 MF C3 11845 0.024689 12.011
10358 opls_154 395 MF O3 11846 0.0 15.9994
10359 opls_156 395 MF H031 11848 0.0 1.008
10360 opls_156 395 MF H032 11849 0.0 1.008
10361 opls_910 395 MF H11 11850 0.0 1.008
10362 A 396 MF A1 11851 0.0 72.06679999999997
10363 opls_902 396 MF N11 11852 -0.407377 14.0067
10364 opls_145 396 MF C11 11853 0.682493 12.011
10365 opls_901 396 MF N21 11854 -0.299731 14.0067
10366 opls_157 396 MF C1 11855 0.024669 12.011
10367 opls_156 396 MF H011 11858 0.0 1.008
10368 opls_156 396 MF H012 11859 0.0 1.008
10369 opls_910 396 MF H21 11860 0.0 1.008
10370 A 396 MF A2 11861 0.0 72.06679999999997
10371 opls_902 396 MF N12 11862 -0.407374 14.0067
10372 opls_145 396 MF C12 11863 0.682437 12.011
10373 opls_901 396 MF N22 11864 -0.299729 14.0067
10374 opls_157 396 MF C2 11865 0.024672 12.011
10375 opls_156 396 MF H021 11868 0.0 1.008
10376 opls_156 396 MF H022 11869 0.0 1.008
10377 opls_910 396 MF H31 11870 0.0 1.008
10378 A 396 MF A3 11871 0.0 72.06679999999997
10379 opls_902 396 MF N13 11872 -0.407483 14.0067
10380 opls_145 396 MF C13 11873 0.682492 12.011
10381 opls_901 396 MF N23 11874 -0.299758 14.0067
10382 opls_157 396 MF C3 11875 0.024689 12.011
10383 opls_154 396 MF O3 11876 0.0 15.9994
10384 opls_156 396 MF H031 11878 0.0 1.008
10385 opls_156 396 MF H032 11879 0.0 1.008
10386 opls_910 396 MF H11 11880 0.0 1.008
10387 A 397 MF A1 11881 0.0 72.06679999999997
10388 opls_902 397 MF N11 11882 -0.407377 14.0067
10389 opls_145 397 MF C11 11883 0.682493 12.011
10390 opls_901 397 MF N21 11884 -0.299731 14.0067
10391 opls_157 397 MF C1 11885 0.024669 12.011
10392 opls_156 397 MF H011 11888 0.0 1.008
10393 opls_156 397 MF H012 11889 0.0 1.008
10394 opls_910 397 MF H21 11890 0.0 1.008
10395 A 397 MF A2 11891 0.0 72.06679999999997
10396 opls_902 397 MF N12 11892 -0.407374 14.0067
10397 opls_145 397 MF C12 11893 0.682437 12.011
10398 opls_901 397 MF N22 11894 -0.299729 14.0067
10399 opls_157 397 MF C2 11895 0.024672 12.011
10400 opls_154 397 MF O2 11896 0.0 15.9994
10401 opls_155 397 MF H02 11897 0.0 1.008
10402 opls_156 397 MF H021 11898 0.0 1.008
10403 opls_156 397 MF H022 11899 0.0 1.008
10404 opls_910 397 MF H31 11900 0.0 1.008
10405 A 397 MF A3 11901 0.0 72.06679999999997
10406 opls_902 397 MF N13 11902 -0.407483 14.0067
10407 opls_145 397 MF C13 11903 0.682492 12.011
10408 opls_901 397 MF N23 11904 -0.299758 14.0067
10409 opls_157 397 MF C3 11905 0.024689 12.011
10410 opls_156 397 MF H031 11908 0.0 1.008
10411 opls_156 397 MF H032 11909 0.0 1.008
10412 opls_910 397 MF H11 11910 0.0 1.008
10413 A 398 MF A1 11911 0.0 72.06679999999997
10414 opls_902 398 MF N11 11912 -0.407377 14.0067
10415 opls_145 398 MF C11 11913 0.682493 12.011
10416 opls_901 398 MF N21 11914 -0.299731 14.0067
10417 opls_157 398 MF C1 11915 0.024669 12.011
10418 opls_156 398 MF H011 11918 0.0 1.008
10419 opls_156 398 MF H012 11919 0.0 1.008
10420 opls_910 398 MF H21 11920 0.0 1.008
10421 A 398 MF A2 11921 0.0 72.06679999999997
10422 opls_902 398 MF N12 11922 -0.407374 14.0067
10423 opls_145 398 MF C12 11923 0.682437 12.011
10424 opls_901 398 MF N22 11924 -0.299729 14.0067
10425 opls_157 398 MF C2 11925 0.024672 12.011
10426 opls_156 398 MF H021 11928 0.0 1.008
10427 opls_156 398 MF H022 11929 0.0 1.008
10428 opls_910 398 MF H31 11930 0.0 1.008
10429 A 398 MF A3 11931 0.0 72.06679999999997
10430 opls_902 398 MF N13 11932 -0.407483 14.0067
10431 opls_145 398 MF C13 11933 0.682492 12.011
10432 opls_901 398 MF N23 11934 -0.299758 14.0067
10433 opls_157 398 MF C3 11935 0.024689 12.011
10434 opls_154 398 MF O3 11936 0.0 15.9994
10435 opls_156 398 MF H031 11938 0.0 1.008
10436 opls_156 398 MF H032 11939 0.0 1.008
10437 opls_910 398 MF H11 11940 0.0 1.008
10438 A 399 MF A1 11941 0.0 72.06679999999997
10439 opls_902 399 MF N11 11942 -0.407377 14.0067
10440 opls_145 399 MF C11 11943 0.682493 12.011
10441 opls_901 399 MF N21 11944 -0.299731 14.0067
10442 opls_157 399 MF C1 11945 0.024669 12.011
10443 opls_154 399 MF O1 11946 0.0 15.9994
10444 opls_155 399 MF H01 11947 0.0 1.008
10445 opls_156 399 MF H011 11948 0.0 1.008
10446 opls_156 399 MF H012 11949 0.0 1.008
10447 opls_910 399 MF H21 11950 0.0 1.008
10448 A 399 MF A2 11951 0.0 72.06679999999997
10449 opls_902 399 MF N12 11952 -0.407374 14.0067
10450 opls_145 399 MF C12 11953 0.682437 12.011
10451 opls_901 399 MF N22 11954 -0.299729 14.0067
10452 opls_157 399 MF C2 11955 0.024672 12.011
10453 opls_156 399 MF H021 11958 0.0 1.008
10454 opls_156 399 MF H022 11959 0.0 1.008
10455 opls_910 399 MF H31 11960 0.0 1.008
10456 A 399 MF A3 11961 0.0 72.06679999999997
10457 opls_902 399 MF N13 11962 -0.407483 14.0067
10458 opls_145 399 MF C13 11963 0.682492 12.011
10459 opls_901 399 MF N23 11964 -0.299758 14.0067
10460 opls_157 399 MF C3 11965 0.024689 12.011
10461 opls_156 399 MF H031 11968 0.0 1.008
10462 opls_156 399 MF H032 11969 0.0 1.008
10463 opls_910 399 MF H11 11970 0.0 1.008
10464 A 400 MF A1 11971 0.0 72.06679999999997
10465 opls_902 400 MF N11 11972 -0.407377 14.0067
10466 opls_145 400 MF C11 11973 0.682493 12.011
10467 opls_901 400 MF N21 11974 -0.299731 14.0067
10468 opls_157 400 MF C1 11975 0.024669 12.011
10469 opls_156 400 MF H011 11978 0.0 1.008
10470 opls_156 400 MF H012 11979 0.0 1.008
10471 opls_910 400 MF H21 11980 0.0 1.008
10472 A 400 MF A2 11981 0.0 72.06679999999997
10473 opls_902 400 MF N12 11982 -0.407374 14.0067
10474 opls_145 400 MF C12 11983 0.682437 12.011
10475 opls_901 400 MF N22 11984 -0.299729 14.0067
10476 opls_157 400 MF C2 11985 0.024672 12.011
10477 opls_156 400 MF H021 11988 0.0 1.008
10478 opls_156 400 MF H022 11989 0.0 1.008
10479 opls_910 400 MF H31 11990 0.0 1.008
10480 A 400 MF A3 11991 0.0 72.06679999999997
10481 opls_902 400 MF N13 11992 -0.407483 14.0067
10482 opls_145 400 MF C13 11993 0.682492 12.011
10483 opls_901 400 MF N23 11994 -0.299758 14.0067
10484 opls_157 400 MF C3 11995 0.024689 12.011
10485 opls_156 400 MF H031 11998 0.0 1.008
10486 opls_156 400 MF H032 11999 0.0 1.008
10487 opls_910 400 MF H11 12000 0.0 1.008
10488 A 401 MF A1 12001 0.0 72.06679999999997
10489 opls_902 401 MF N11 12002 -0.407377 14.0067
10490 opls_145 401 MF C11 12003 0.682493 12.011
10491 opls_901 401 MF N21 12004 -0.299731 14.0067
10492 opls_157 401 MF C1 12005 0.024669 12.011
10493 opls_156 401 MF H011 12008 0.0 1.008
10494 opls_156 401 MF H012 12009 0.0 1.008
10495 opls_910 401 MF H21 12010 0.0 1.008
10496 A 401 MF A2 12011 0.0 72.06679999999997
10497 opls_902 401 MF N12 12012 -0.407374 14.0067
10498 opls_145 401 MF C12 12013 0.682437 12.011
10499 opls_901 401 MF N22 12014 -0.299729 14.0067
10500 opls_157 401 MF C2 12015 0.024672 12.011
10501 opls_156 401 MF H021 12018 0.0 1.008
10502 opls_156 401 MF H022 12019 0.0 1.008
10503 opls_910 401 MF H31 12020 0.0 1.008
10504 A 401 MF A3 12021 0.0 72.06679999999997
10505 opls_902 401 MF N13 12022 -0.407483 14.0067
10506 opls_145 401 MF C13 12023 0.682492 12.011
10507 opls_901 401 MF N23 12024 -0.299758 14.0067
10508 opls_157 401 MF C3 12025 0.024689 12.011
10509 opls_156 401 MF H031 12028 0.0 1.008
10510 opls_156 401 MF H032 12029 0.0 1.008
10511 opls_910 401 MF H11 12030 0.0 1.008
10512 A 402 MF A1 12031 0.0 72.06679999999997
10513 opls_902 402 MF N11 12032 -0.407377 14.0067
10514 opls_145 402 MF C11 12033 0.682493 12.011
10515 opls_901 402 MF N21 12034 -0.299731 14.0067
10516 opls_157 402 MF C1 12035 0.024669 12.011
10517 opls_156 402 MF H011 12038 0.0 1.008
10518 opls_156 402 MF H012 12039 0.0 1.008
10519 opls_910 402 MF H21 12040 0.0 1.008
10520 A 402 MF A2 12041 0.0 72.06679999999997
10521 opls_902 402 MF N12 12042 -0.407374 14.0067
10522 opls_145 402 MF C12 12043 0.682437 12.011
10523 opls_901 402 MF N22 12044 -0.299729 14.0067
10524 opls_157 402 MF C2 12045 0.024672 12.011
10525 opls_154 402 MF O2 12046 0.0 15.9994
10526 opls_156 402 MF H021 12048 0.0 1.008
10527 opls_156 402 MF H022 12049 0.0 1.008
10528 opls_910 402 MF H31 12050 0.0 1.008
10529 A 402 MF A3 12051 0.0 72.06679999999997
10530 opls_902 402 MF N13 12052 -0.407483 14.0067
10531 opls_145 402 MF C13 12053 0.682492 12.011
10532 opls_901 402 MF N23 12054 -0.299758 14.0067
10533 opls_157 402 MF C3 12055 0.024689 12.011
10534 opls_156 402 MF H031 12058 0.0 1.008
10535 opls_156 402 MF H032 12059 0.0 1.008
10536 opls_910 402 MF H11 12060 0.0 1.008
10537 A 403 MF A1 12061 0.0 72.06679999999997
10538 opls_902 403 MF N11 12062 -0.407377 14.0067
10539 opls_145 403 MF C11 12063 0.682493 12.011
10540 opls_901 403 MF N21 12064 -0.299731 14.0067
10541 opls_157 403 MF C1 12065 0.024669 12.011
10542 opls_156 403 MF H011 12068 0.0 1.008
10543 opls_156 403 MF H012 12069 0.0 1.008
10544 opls_910 403 MF H21 12070 0.0 1.008
10545 A 403 MF A2 12071 0.0 72.06679999999997
10546 opls_902 403 MF N12 12072 -0.407374 14.0067
10547 opls_145 403 MF C12 12073 0.682437 12.011
10548 opls_901 403 MF N22 12074 -0.299729 14.0067
10549 opls_157 403 MF C2 12075 0.024672 12.011
10550 opls_156 403 MF H021 12078 0.0 1.008
10551 opls_156 403 MF H022 12079 0.0 1.008
10552 opls_910 403 MF H31 12080 0.0 1.008
10553 A 403 MF A3 12081 0.0 72.06679999999997
10554 opls_902 403 MF N13 12082 -0.407483 14.0067
10555 opls_145 403 MF C13 12083 0.682492 12.011
10556 opls_901 403 MF N23 12084 -0.299758 14.0067
10557 opls_157 403 MF C3 12085 0.024689 12.011
10558 opls_154 403 MF O3 12086 0.0 15.9994
10559 opls_155 403 MF H03 12087 0.0 1.008
10560 opls_156 403 MF H031 12088 0.0 1.008
10561 opls_156 403 MF H032 12089 0.0 1.008
10562 opls_910 403 MF H11 12090 0.0 1.008
10563 A 404 MF A1 12091 0.0 72.06679999999997
10564 opls_902 404 MF N11 12092 -0.407377 14.0067
10565 opls_145 404 MF C11 12093 0.682493 12.011
10566 opls_901 404 MF N21 12094 -0.299731 14.0067
10567 opls_157 404 MF C1 12095 0.024669 12.011
10568 opls_154 404 MF O1 12096 0.0 15.9994
10569 opls_155 404 MF H01 12097 0.0 1.008
10570 opls_156 404 MF H011 12098 0.0 1.008
10571 opls_156 404 MF H012 12099 0.0 1.008
10572 opls_910 404 MF H21 12100 0.0 1.008
10573 A 404 MF A2 12101 0.0 72.06679999999997
10574 opls_902 404 MF N12 12102 -0.407374 14.0067
10575 opls_145 404 MF C12 12103 0.682437 12.011
10576 opls_901 404 MF N22 12104 -0.299729 14.0067
10577 opls_157 404 MF C2 12105 0.024672 12.011
10578 opls_156 404 MF H021 12108 0.0 1.008
10579 opls_156 404 MF H022 12109 0.0 1.008
10580 opls_910 404 MF H31 12110 0.0 1.008
10581 A 404 MF A3 12111 0.0 72.06679999999997
10582 opls_902 404 MF N13 12112 -0.407483 14.0067
10583 opls_145 404 MF C13 12113 0.682492 12.011
10584 opls_901 404 MF N23 12114 -0.299758 14.0067
10585 opls_157 404 MF C3 12115 0.024689 12.011
10586 opls_156 404 MF H031 12118 0.0 1.008
10587 opls_156 404 MF H032 12119 0.0 1.008
10588 opls_910 404 MF H11 12120 0.0 1.008
10589 A 405 MF A1 12121 0.0 72.06679999999997
10590 opls_902 405 MF N11 12122 -0.407377 14.0067
10591 opls_145 405 MF C11 12123 0.682493 12.011
10592 opls_901 405 MF N21 12124 -0.299731 14.0067
10593 opls_157 405 MF C1 12125 0.024669 12.011
10594 opls_156 405 MF H011 12128 0.0 1.008
10595 opls_156 405 MF H012 12129 0.0 1.008
10596 opls_910 405 MF H21 12130 0.0 1.008
10597 A 405 MF A2 12131 0.0 72.06679999999997
10598 opls_902 405 MF N12 12132 -0.407374 14.0067
10599 opls_145 405 MF C12 12133 0.682437 12.011
10600 opls_901 405 MF N22 12134 -0.299729 14.0067
10601 opls_157 405 MF C2 12135 0.024672 12.011
10602 opls_156 405 MF H021 12138 0.0 1.008
10603 opls_156 405 MF H022 12139 0.0 1.008
10604 opls_910 405 MF H31 12140 0.0 1.008
10605 A 405 MF A3 12141 0.0 72.06679999999997
10606 opls_902 405 MF N13 12142 -0.407483 14.0067
10607 opls_145 405 MF C13 12143 0.682492 12.011
10608 opls_901 405 MF N23 12144 -0.299758 14.0067
10609 opls_157 405 MF C3 12145 0.024689 12.011
10610 opls_156 405 MF H031 12148 0.0 1.008
10611 opls_156 405 MF H032 12149 0.0 1.008
10612 opls_910 405 MF H11 12150 0.0 1.008
10613 A 406 MF A1 12151 0.0 72.06679999999997
10614 opls_902 406 MF N11 12152 -0.407377 14.0067
10615 opls_145 406 MF C11 12153 0.682493 12.011
10616 opls_901 406 MF N21 12154 -0.299731 14.0067
10617 opls_157 406 MF C1 12155 0.024669 12.011
10618 opls_156 406 MF H011 12158 0.0 1.008
10619 opls_156 406 MF H012 12159 0.0 1.008
10620 opls_910 406 MF H21 12160 0.0 1.008
10621 A 406 MF A2 12161 0.0 72.06679999999997
10622 opls_902 406 MF N12 12162 -0.407374 14.0067
10623 opls_145 406 MF C12 12163 0.682437 12.011
10624 opls_901 406 MF N22 12164 -0.299729 14.0067
10625 opls_157 406 MF C2 12165 0.024672 12.011
10626 opls_156 406 MF H021 12168 0.0 1.008
10627 opls_156 406 MF H022 12169 0.0 1.008
10628 opls_910 406 MF H31 12170 0.0 1.008
10629 A 406 MF A3 12171 0.0 72.06679999999997
10630 opls_902 406 MF N13 12172 -0.407483 14.0067
10631 opls_145 406 MF C13 12173 0.682492 12.011
10632 opls_901 406 MF N23 12174 -0.299758 14.0067
10633 opls_157 406 MF C3 12175 0.024689 12.011
10634 opls_154 406 MF O3 12176 0.0 15.9994
10635 opls_155 406 MF H03 12177 0.0 1.008
10636 opls_156 406 MF H031 12178 0.0 1.008
10637 opls_156 406 MF H032 12179 0.0 1.008
10638 opls_910 406 MF H11 12180 0.0 1.008
10639 A 407 MF A1 12181 0.0 72.06679999999997
10640 opls_902 407 MF N11 12182 -0.407377 14.0067
10641 opls_145 407 MF C11 12183 0.682493 12.011
10642 opls_901 407 MF N21 12184 -0.299731 14.0067
10643 opls_157 407 MF C1 12185 0.024669 12.011
10644 opls_156 407 MF H011 12188 0.0 1.008
10645 opls_156 407 MF H012 12189 0.0 1.008
10646 opls_910 407 MF H21 12190 0.0 1.008
10647 A 407 MF A2 12191 0.0 72.06679999999997
10648 opls_902 407 MF N12 12192 -0.407374 14.0067
10649 opls_145 407 MF C12 12193 0.682437 12.011
10650 opls_901 407 MF N22 12194 -0.299729 14.0067
10651 opls_157 407 MF C2 12195 0.024672 12.011
10652 opls_156 407 MF H021 12198 0.0 1.008
10653 opls_156 407 MF H022 12199 0.0 1.008
10654 opls_910 407 MF H31 12200 0.0 1.008
10655 A 407 MF A3 12201 0.0 72.06679999999997
10656 opls_902 407 MF N13 12202 -0.407483 14.0067
10657 opls_145 407 MF C13 12203 0.682492 12.011
10658 opls_901 407 MF N23 12204 -0.299758 14.0067
10659 opls_157 407 MF C3 12205 0.024689 12.011
10660 opls_156 407 MF H031 12208 0.0 1.008
10661 opls_156 407 MF H032 12209 0.0 1.008
10662 opls_910 407 MF H11 12210 0.0 1.008
10663 A 408 MF A1 12211 0.0 72.06679999999997
10664 opls_902 408 MF N11 12212 -0.407377 14.0067
10665 opls_145 408 MF C11 12213 0.682493 12.011
10666 opls_901 408 MF N21 12214 -0.299731 14.0067
10667 opls_157 408 MF C1 12215 0.024669 12.011
10668 opls_156 408 MF H011 12218 0.0 1.008
10669 opls_156 408 MF H012 12219 0.0 1.008
10670 opls_910 408 MF H21 12220 0.0 1.008
10671 A 408 MF A2 12221 0.0 72.06679999999997
10672 opls_902 408 MF N12 12222 -0.407374 14.0067
10673 opls_145 408 MF C12 12223 0.682437 12.011
10674 opls_901 408 MF N22 12224 -0.299729 14.0067
10675 opls_157 408 MF C2 12225 0.024672 12.011
10676 opls_154 408 MF O2 12226 0.0 15.9994
10677 opls_156 408 MF H021 12228 0.0 1.008
10678 opls_156 408 MF H022 12229 0.0 1.008
10679 opls_910 408 MF H31 12230 0.0 1.008
10680 A 408 MF A3 12231 0.0 72.06679999999997
10681 opls_902 408 MF N13 12232 -0.407483 14.0067
10682 opls_145 408 MF C13 12233 0.682492 12.011
10683 opls_901 408 MF N23 12234 -0.299758 14.0067
10684 opls_157 408 MF C3 12235 0.024689 12.011
10685 opls_154 408 MF O3 12236 0.0 15.9994
10686 opls_155 408 MF H03 12237 0.0 1.008
10687 opls_156 408 MF H031 12238 0.0 1.008
10688 opls_156 408 MF H032 12239 0.0 1.008
10689 opls_910 408 MF H11 12240 0.0 1.008
10690 A 409 MF A1 12241 0.0 72.06679999999997
10691 opls_902 409 MF N11 12242 -0.407377 14.0067
10692 opls_145 409 MF C11 12243 0.682493 12.011
10693 opls_901 409 MF N21 12244 -0.299731 14.0067
10694 opls_157 409 MF C1 12245 0.024669 12.011
10695 opls_154 409 MF O1 12246 0.0 15.9994
10696 opls_156 409 MF H011 12248 0.0 1.008
10697 opls_156 409 MF H012 12249 0.0 1.008
10698 opls_910 409 MF H21 12250 0.0 1.008
10699 A 409 MF A2 12251 0.0 72.06679999999997
10700 opls_902 409 MF N12 12252 -0.407374 14.0067
10701 opls_145 409 MF C12 12253 0.682437 12.011
10702 opls_901 409 MF N22 12254 -0.299729 14.0067
10703 opls_157 409 MF C2 12255 0.024672 12.011
10704 opls_156 409 MF H021 12258 0.0 1.008
10705 opls_156 409 MF H022 12259 0.0 1.008
10706 opls_910 409 MF H31 12260 0.0 1.008
10707 A 409 MF A3 12261 0.0 72.06679999999997
10708 opls_902 409 MF N13 12262 -0.407483 14.0067
10709 opls_145 409 MF C13 12263 0.682492 12.011
10710 opls_901 409 MF N23 12264 -0.299758 14.0067
10711 opls_157 409 MF C3 12265 0.024689 12.011
10712 opls_156 409 MF H031 12268 0.0 1.008
10713 opls_156 409 MF H032 12269 0.0 1.008
10714 opls_910 409 MF H11 12270 0.0 1.008
10715 A 410 MF A1 12271 0.0 72.06679999999997
10716 opls_902 410 MF N11 12272 -0.407377 14.0067
10717 opls_145 410 MF C11 12273 0.682493 12.011
10718 opls_901 410 MF N21 12274 -0.299731 14.0067
10719 opls_157 410 MF C1 12275 0.024669 12.011
10720 opls_156 410 MF H011 12278 0.0 1.008
10721 opls_156 410 MF H012 12279 0.0 1.008
10722 opls_910 410 MF H21 12280 0.0 1.008
10723 A 410 MF A2 12281 0.0 72.06679999999997
10724 opls_902 410 MF N12 12282 -0.407374 14.0067
10725 opls_145 410 MF C12 12283 0.682437 12.011
10726 opls_901 410 MF N22 12284 -0.299729 14.0067
10727 opls_157 410 MF C2 12285 0.024672 12.011
10728 opls_154 410 MF O2 12286 0.0 15.9994
10729 opls_156 410 MF H021 12288 0.0 1.008
10730 opls_156 410 MF H022 12289 0.0 1.008
10731 opls_910 410 MF H31 12290 0.0 1.008
10732 A 410 MF A3 12291 0.0 72.06679999999997
10733 opls_902 410 MF N13 12292 -0.407483 14.0067
10734 opls_145 410 MF C13 12293 0.682492 12.011
10735 opls_901 410 MF N23 12294 -0.299758 14.0067
10736 opls_157 410 MF C3 12295 0.024689 12.011
10737 opls_156 410 MF H031 12298 0.0 1.008
10738 opls_156 410 MF H032 12299 0.0 1.008
10739 opls_910 410 MF H11 12300 0.0 1.008
10740 A 411 MF A1 12301 0.0 72.06679999999997
10741 opls_902 411 MF N11 12302 -0.407377 14.0067
10742 opls_145 411 MF C11 12303 0.682493 12.011
10743 opls_901 411 MF N21 12304 -0.299731 14.0067
10744 opls_157 411 MF C1 12305 0.024669 12.011
10745 opls_156 411 MF H011 12308 0.0 1.008
10746 opls_156 411 MF H012 12309 0.0 1.008
10747 opls_910 411 MF H21 12310 0.0 1.008
10748 A 411 MF A2 12311 0.0 72.06679999999997
10749 opls_902 411 MF N12 12312 -0.407374 14.0067
10750 opls_145 411 MF C12 12313 0.682437 12.011
10751 opls_901 411 MF N22 12314 -0.299729 14.0067
10752 opls_157 411 MF C2 12315 0.024672 12.011
10753 opls_156 411 MF H021 12318 0.0 1.008
10754 opls_156 411 MF H022 12319 0.0 1.008
10755 opls_910 411 MF H31 12320 0.0 1.008
10756 A 411 MF A3 12321 0.0 72.06679999999997
10757 opls_902 411 MF N13 12322 -0.407483 14.0067
10758 opls_145 411 MF C13 12323 0.682492 12.011
10759 opls_901 411 MF N23 12324 -0.299758 14.0067
10760 opls_157 411 MF C3 12325 0.024689 12.011
10761 opls_156 411 MF H031 12328 0.0 1.008
10762 opls_156 411 MF H032 12329 0.0 1.008
10763 opls_910 411 MF H11 12330 0.0 1.008
10764 A 412 MF A1 12331 0.0 72.06679999999997
10765 opls_902 412 MF N11 12332 -0.407377 14.0067
10766 opls_145 412 MF C11 12333 0.682493 12.011
10767 opls_901 412 MF N21 12334 -0.299731 14.0067
10768 opls_157 412 MF C1 12335 0.024669 12.011
10769 opls_156 412 MF H011 12338 0.0 1.008
10770 opls_156 412 MF H012 12339 0.0 1.008
10771 opls_910 412 MF H21 12340 0.0 1.008
10772 A 412 MF A2 12341 0.0 72.06679999999997
10773 opls_902 412 MF N12 12342 -0.407374 14.0067
10774 opls_145 412 MF C12 12343 0.682437 12.011
10775 opls_901 412 MF N22 12344 -0.299729 14.0067
10776 opls_157 412 MF C2 12345 0.024672 12.011
10777 opls_156 412 MF H021 12348 0.0 1.008
10778 opls_156 412 MF H022 12349 0.0 1.008
10779 opls_910 412 MF H31 12350 0.0 1.008
10780 A 412 MF A3 12351 0.0 72.06679999999997
10781 opls_902 412 MF N13 12352 -0.407483 14.0067
10782 opls_145 412 MF C13 12353 0.682492 12.011
10783 opls_901 412 MF N23 12354 -0.299758 14.0067
10784 opls_157 412 MF C3 12355 0.024689 12.011
10785 opls_156 412 MF H031 12358 0.0 1.008
10786 opls_156 412 MF H032 12359 0.0 1.008
10787 opls_910 412 MF H11 12360 0.0 1.008
10788 A 413 MF A1 12361 0.0 72.06679999999997
10789 opls_902 413 MF N11 12362 -0.407377 14.0067
10790 opls_145 413 MF C11 12363 0.682493 12.011
10791 opls_901 413 MF N21 12364 -0.299731 14.0067
10792 opls_157 413 MF C1 12365 0.024669 12.011
10793 opls_156 413 MF H011 12368 0.0 1.008
10794 opls_156 413 MF H012 12369 0.0 1.008
10795 opls_910 413 MF H21 12370 0.0 1.008
10796 A 413 MF A2 12371 0.0 72.06679999999997
10797 opls_902 413 MF N12 12372 -0.407374 14.0067
10798 opls_145 413 MF C12 12373 0.682437 12.011
10799 opls_901 413 MF N22 12374 -0.299729 14.0067
10800 opls_157 413 MF C2 12375 0.024672 12.011
10801 opls_156 413 MF H021 12378 0.0 1.008
10802 opls_156 413 MF H022 12379 0.0 1.008
10803 opls_910 413 MF H31 12380 0.0 1.008
10804 A 413 MF A3 12381 0.0 72.06679999999997
10805 opls_902 413 MF N13 12382 -0.407483 14.0067
10806 opls_145 413 MF C13 12383 0.682492 12.011
10807 opls_901 413 MF N23 12384 -0.299758 14.0067
10808 opls_157 413 MF C3 12385 0.024689 12.011
10809 opls_154 413 MF O3 12386 0.0 15.9994
10810 opls_156 413 MF H031 12388 0.0 1.008
10811 opls_156 413 MF H032 12389 0.0 1.008
10812 opls_910 413 MF H11 12390 0.0 1.008
10813 A 414 MF A1 12391 0.0 72.06679999999997
10814 opls_902 414 MF N11 12392 -0.407377 14.0067
10815 opls_145 414 MF C11 12393 0.682493 12.011
10816 opls_901 414 MF N21 12394 -0.299731 14.0067
10817 opls_157 414 MF C1 12395 0.024669 12.011
10818 opls_154 414 MF O1 12396 0.0 15.9994
10819 opls_156 414 MF H011 12398 0.0 1.008
10820 opls_156 414 MF H012 12399 0.0 1.008
10821 opls_910 414 MF H21 12400 0.0 1.008
10822 A 414 MF A2 12401 0.0 72.06679999999997
10823 opls_902 414 MF N12 12402 -0.407374 14.0067
10824 opls_145 414 MF C12 12403 0.682437 12.011
10825 opls_901 414 MF N22 12404 -0.299729 14.0067
10826 opls_157 414 MF C2 12405 0.024672 12.011
10827 opls_156 414 MF H021 12408 0.0 1.008
10828 opls_156 414 MF H022 12409 0.0 1.008
10829 opls_910 414 MF H31 12410 0.0 1.008
10830 A 414 MF A3 12411 0.0 72.06679999999997
10831 opls_902 414 MF N13 12412 -0.407483 14.0067
10832 opls_145 414 MF C13 12413 0.682492 12.011
10833 opls_901 414 MF N23 12414 -0.299758 14.0067
10834 opls_157 414 MF C3 12415 0.024689 12.011
10835 opls_156 414 MF H031 12418 0.0 1.008
10836 opls_156 414 MF H032 12419 0.0 1.008
10837 opls_910 414 MF H11 12420 0.0 1.008
10838 A 415 MF A1 12421 0.0 72.06679999999997
10839 opls_902 415 MF N11 12422 -0.407377 14.0067
10840 opls_145 415 MF C11 12423 0.682493 12.011
10841 opls_901 415 MF N21 12424 -0.299731 14.0067
10842 opls_157 415 MF C1 12425 0.024669 12.011
10843 opls_154 415 MF O1 12426 0.0 15.9994
10844 opls_155 415 MF H01 12427 0.0 1.008
10845 opls_156 415 MF H011 12428 0.0 1.008
10846 opls_156 415 MF H012 12429 0.0 1.008
10847 opls_910 415 MF H21 12430 0.0 1.008
10848 A 415 MF A2 12431 0.0 72.06679999999997
10849 opls_902 415 MF N12 12432 -0.407374 14.0067
10850 opls_145 415 MF C12 12433 0.682437 12.011
10851 opls_901 415 MF N22 12434 -0.299729 14.0067
10852 opls_157 415 MF C2 12435 0.024672 12.011
10853 opls_156 415 MF H021 12438 0.0 1.008
10854 opls_156 415 MF H022 12439 0.0 1.008
10855 opls_910 415 MF H31 12440 0.0 1.008
10856 A 415 MF A3 12441 0.0 72.06679999999997
10857 opls_902 415 MF N13 12442 -0.407483 14.0067
10858 opls_145 415 MF C13 12443 0.682492 12.011
10859 opls_901 415 MF N23 12444 -0.299758 14.0067
10860 opls_157 415 MF C3 12445 0.024689 12.011
10861 opls_156 415 MF H031 12448 0.0 1.008
10862 opls_156 415 MF H032 12449 0.0 1.008
10863 opls_910 415 MF H11 12450 0.0 1.008
10864 A 416 MF A1 12451 0.0 72.06679999999997
10865 opls_902 416 MF N11 12452 -0.407377 14.0067
10866 opls_145 416 MF C11 12453 0.682493 12.011
10867 opls_901 416 MF N21 12454 -0.299731 14.0067
10868 opls_157 416 MF C1 12455 0.024669 12.011
10869 opls_154 416 MF O1 12456 0.0 15.9994
10870 opls_156 416 MF H011 12458 0.0 1.008
10871 opls_156 416 MF H012 12459 0.0 1.008
10872 opls_910 416 MF H21 12460 0.0 1.008
10873 A 416 MF A2 12461 0.0 72.06679999999997
10874 opls_902 416 MF N12 12462 -0.407374 14.0067
10875 opls_145 416 MF C12 12463 0.682437 12.011
10876 opls_901 416 MF N22 12464 -0.299729 14.0067
10877 opls_157 416 MF C2 12465 0.024672 12.011
10878 opls_156 416 MF H021 12468 0.0 1.008
10879 opls_156 416 MF H022 12469 0.0 1.008
10880 opls_910 416 MF H31 12470 0.0 1.008
10881 A 416 MF A3 12471 0.0 72.06679999999997
10882 opls_902 416 MF N13 12472 -0.407483 14.0067
10883 opls_145 416 MF C13 12473 0.682492 12.011
10884 opls_901 416 MF N23 12474 -0.299758 14.0067
10885 opls_157 416 MF C3 12475 0.024689 12.011
10886 opls_154 416 MF O3 12476 0.0 15.9994
10887 opls_155 416 MF H03 12477 0.0 1.008
10888 opls_156 416 MF H031 12478 0.0 1.008
10889 opls_156 416 MF H032 12479 0.0 1.008
10890 opls_910 416 MF H11 12480 0.0 1.008
10891 A 417 MF A1 12481 0.0 72.06679999999997
10892 opls_902 417 MF N11 12482 -0.407377 14.0067
10893 opls_145 417 MF C11 12483 0.682493 12.011
10894 opls_901 417 MF N21 12484 -0.299731 14.0067
10895 opls_157 417 MF C1 12485 0.024669 12.011
10896 opls_156 417 MF H011 12488 0.0 1.008
10897 opls_156 417 MF H012 12489 0.0 1.008
10898 opls_910 417 MF H21 12490 0.0 1.008
10899 A 417 MF A2 12491 0.0 72.06679999999997
10900 opls_902 417 MF N12 12492 -0.407374 14.0067
10901 opls_145 417 MF C12 12493 0.682437 12.011
10902 opls_901 417 MF N22 12494 -0.299729 14.0067
10903 opls_157 417 MF C2 12495 0.024672 12.011
10904 opls_156 417 MF H021 12498 0.0 1.008
10905 opls_156 417 MF H022 12499 0.0 1.008
10906 opls_910 417 MF H31 12500 0.0 1.008
10907 A 417 MF A3 12501 0.0 72.06679999999997
10908 opls_902 417 MF N13 12502 -0.407483 14.0067
10909 opls_145 417 MF C13 12503 0.682492 12.011
10910 opls_901 417 MF N23 12504 -0.299758 14.0067
10911 opls_157 417 MF C3 12505 0.024689 12.011
10912 opls_156 417 MF H031 12508 0.0 1.008
10913 opls_156 417 MF H032 12509 0.0 1.008
10914 opls_910 417 MF H11 12510 0.0 1.008
10915 A 418 MF A1 12511 0.0 72.06679999999997
10916 opls_902 418 MF N11 12512 -0.407377 14.0067
10917 opls_145 418 MF C11 12513 0.682493 12.011
10918 opls_901 418 MF N21 12514 -0.299731 14.0067
10919 opls_157 418 MF C1 12515 0.024669 12.011
10920 opls_156 418 MF H011 12518 0.0 1.008
10921 opls_156 418 MF H012 12519 0.0 1.008
10922 opls_910 418 MF H21 12520 0.0 1.008
10923 A 418 MF A2 12521 0.0 72.06679999999997
10924 opls_902 418 MF N12 12522 -0.407374 14.0067
10925 opls_145 418 MF C12 12523 0.682437 12.011
10926 opls_901 418 MF N22 12524 -0.299729 14.0067
10927 opls_157 418 MF C2 12525 0.024672 12.011
10928 opls_156 418 MF H021 12528 0.0 1.008
10929 opls_156 418 MF H022 12529 0.0 1.008
10930 opls_910 418 MF H31 12530 0.0 1.008
10931 A 418 MF A3 12531 0.0 72.06679999999997
10932 opls_902 418 MF N13 12532 -0.407483 14.0067
10933 opls_145 418 MF C13 12533 0.682492 12.011
10934 opls_901 418 MF N23 12534 -0.299758 14.0067
10935 opls_157 418 MF C3 12535 0.024689 12.011
10936 opls_156 418 MF H031 12538 0.0 1.008
10937 opls_156 418 MF H032 12539 0.0 1.008
10938 opls_910 418 MF H11 12540 0.0 1.008
10939 A 419 MF A1 12541 0.0 72.06679999999997
10940 opls_902 419 MF N11 12542 -0.407377 14.0067
10941 opls_145 419 MF C11 12543 0.682493 12.011
10942 opls_901 419 MF N21 12544 -0.299731 14.0067
10943 opls_157 419 MF C1 12545 0.024669 12.011
10944 opls_154 419 MF O1 12546 0.0 15.9994
10945 opls_156 419 MF H011 12548 0.0 1.008
10946 opls_156 419 MF H012 12549 0.0 1.008
10947 opls_910 419 MF H21 12550 0.0 1.008
10948 A 419 MF A2 12551 0.0 72.06679999999997
10949 opls_902 419 MF N12 12552 -0.407374 14.0067
10950 opls_145 419 MF C12 12553 0.682437 12.011
10951 opls_901 419 MF N22 12554 -0.299729 14.0067
10952 opls_157 419 MF C2 12555 0.024672 12.011
10953 opls_154 419 MF O2 12556 0.0 15.9994
10954 opls_155 419 MF H02 12557 0.0 1.008
10955 opls_156 419 MF H021 12558 0.0 1.008
10956 opls_156 419 MF H022 12559 0.0 1.008
10957 opls_910 419 MF H31 12560 0.0 1.008
10958 A 419 MF A3 12561 0.0 72.06679999999997
10959 opls_902 419 MF N13 12562 -0.407483 14.0067
10960 opls_145 419 MF C13 12563 0.682492 12.011
10961 opls_901 419 MF N23 12564 -0.299758 14.0067
10962 opls_157 419 MF C3 12565 0.024689 12.011
10963 opls_156 419 MF H031 12568 0.0 1.008
10964 opls_156 419 MF H032 12569 0.0 1.008
10965 opls_910 419 MF H11 12570 0.0 1.008
10966 A 420 MF A1 12571 0.0 72.06679999999997
10967 opls_902 420 MF N11 12572 -0.407377 14.0067
10968 opls_145 420 MF C11 12573 0.682493 12.011
10969 opls_901 420 MF N21 12574 -0.299731 14.0067
10970 opls_157 420 MF C1 12575 0.024669 12.011
10971 opls_156 420 MF H011 12578 0.0 1.008
10972 opls_156 420 MF H012 12579 0.0 1.008
10973 opls_910 420 MF H21 12580 0.0 1.008
10974 A 420 MF A2 12581 0.0 72.06679999999997
10975 opls_902 420 MF N12 12582 -0.407374 14.0067
10976 opls_145 420 MF C12 12583 0.682437 12.011
10977 opls_901 420 MF N22 12584 -0.299729 14.0067
10978 opls_157 420 MF C2 12585 0.024672 12.011
10979 opls_156 420 MF H021 12588 0.0 1.008
10980 opls_156 420 MF H022 12589 0.0 1.008
10981 opls_910 420 MF H31 12590 0.0 1.008
10982 A 420 MF A3 12591 0.0 72.06679999999997
10983 opls_902 420 MF N13 12592 -0.407483 14.0067
10984 opls_145 420 MF C13 12593 0.682492 12.011
10985 opls_901 420 MF N23 12594 -0.299758 14.0067
10986 opls_157 420 MF C3 12595 0.024689 12.011
10987 opls_156 420 MF H031 12598 0.0 1.008
10988 opls_156 420 MF H032 12599 0.0 1.008
10989 opls_910 420 MF H11 12600 0.0 1.008
10990 A 421 MF A1 12601 0.0 72.06679999999997
10991 opls_902 421 MF N11 12602 -0.407377 14.0067
10992 opls_145 421 MF C11 12603 0.682493 12.011
10993 opls_901 421 MF N21 12604 -0.299731 14.0067
10994 opls_157 421 MF C1 12605 0.024669 12.011
10995 opls_156 421 MF H011 12608 0.0 1.008
10996 opls_156 421 MF H012 12609 0.0 1.008
10997 opls_910 421 MF H21 12610 0.0 1.008
10998 A 421 MF A2 12611 0.0 72.06679999999997
10999 opls_902 421 MF N12 12612 -0.407374 14.0067
11000 opls_145 421 MF C12 12613 0.682437 12.011
11001 opls_901 421 MF N22 12614 -0.299729 14.0067
11002 opls_157 421 MF C2 12615 0.024672 12.011
11003 opls_156 421 MF H021 12618 0.0 1.008
11004 opls_156 421 MF H022 12619 0.0 1.008
11005 opls_910 421 MF H31 12620 0.0 1.008
11006 A 421 MF A3 12621 0.0 72.06679999999997
11007 opls_902 421 MF N13 12622 -0.407483 14.0067
11008 opls_145 421 MF C13 12623 0.682492 12.011
11009 opls_901 421 MF N23 12624 -0.299758 14.0067
11010 opls_157 421 MF C3 12625 0.024689 12.011
11011 opls_154 421 MF O3 12626 0.0 15.9994
11012 opls_156 421 MF H031 12628 0.0 1.008
11013 opls_156 421 MF H032 12629 0.0 1.008
11014 opls_910 421 MF H11 12630 0.0 1.008
11015 A 422 MF A1 12631 0.0 72.06679999999997
11016 opls_902 422 MF N11 12632 -0.407377 14.0067
11017 opls_145 422 MF C11 12633 0.682493 12.011
11018 opls_901 422 MF N21 12634 -0.299731 14.0067
11019 opls_157 422 MF C1 12635 0.024669 12.011
11020 opls_156 422 MF H011 12638 0.0 1.008
11021 opls_156 422 MF H012 12639 0.0 1.008
11022 opls_910 422 MF H21 12640 0.0 1.008
11023 A 422 MF A2 12641 0.0 72.06679999999997
11024 opls_902 422 MF N12 12642 -0.407374 14.0067
11025 opls_145 422 MF C12 12643 0.682437 12.011
11026 opls_901 422 MF N22 12644 -0.299729 14.0067
11027 opls_157 422 MF C2 12645 0.024672 12.011
11028 opls_154 422 MF O2 12646 0.0 15.9994
11029 opls_156 422 MF H021 12648 0.0 1.008
11030 opls_156 422 MF H022 12649 0.0 1.008
11031 opls_910 422 MF H31 12650 0.0 1.008
11032 A 422 MF A3 12651 0.0 72.06679999999997
11033 opls_902 422 MF N13 12652 -0.407483 14.0067
11034 opls_145 422 MF C13 12653 0.682492 12.011
11035 opls_901 422 MF N23 12654 -0.299758 14.0067
11036 opls_157 422 MF C3 12655 0.024689 12.011
11037 opls_156 422 MF H031 12658 0.0 1.008
11038 opls_156 422 MF H032 12659 0.0 1.008
11039 opls_910 422 MF H11 12660 0.0 1.008
11040 A 423 MF A1 12661 0.0 72.06679999999997
11041 opls_902 423 MF N11 12662 -0.407377 14.0067
11042 opls_145 423 MF C11 12663 0.682493 12.011
11043 opls_901 423 MF N21 12664 -0.299731 14.0067
11044 opls_157 423 MF C1 12665 0.024669 12.011
11045 opls_156 423 MF H011 12668 0.0 1.008
11046 opls_156 423 MF H012 12669 0.0 1.008
11047 opls_910 423 MF H21 12670 0.0 1.008
11048 A 423 MF A2 12671 0.0 72.06679999999997
11049 opls_902 423 MF N12 12672 -0.407374 14.0067
11050 opls_145 423 MF C12 12673 0.682437 12.011
11051 opls_901 423 MF N22 12674 -0.299729 14.0067
11052 opls_157 423 MF C2 12675 0.024672 12.011
11053 opls_156 423 MF H021 12678 0.0 1.008
11054 opls_156 423 MF H022 12679 0.0 1.008
11055 opls_910 423 MF H31 12680 0.0 1.008
11056 A 423 MF A3 12681 0.0 72.06679999999997
11057 opls_902 423 MF N13 12682 -0.407483 14.0067
11058 opls_145 423 MF C13 12683 0.682492 12.011
11059 opls_901 423 MF N23 12684 -0.299758 14.0067
11060 opls_157 423 MF C3 12685 0.024689 12.011
11061 opls_156 423 MF H031 12688 0.0 1.008
11062 opls_156 423 MF H032 12689 0.0 1.008
11063 opls_910 423 MF H11 12690 0.0 1.008
11064 A 424 MF A1 12691 0.0 72.06679999999997
11065 opls_902 424 MF N11 12692 -0.407377 14.0067
11066 opls_145 424 MF C11 12693 0.682493 12.011
11067 opls_901 424 MF N21 12694 -0.299731 14.0067
11068 opls_157 424 MF C1 12695 0.024669 12.011
11069 opls_156 424 MF H011 12698 0.0 1.008
11070 opls_156 424 MF H012 12699 0.0 1.008
11071 opls_910 424 MF H21 12700 0.0 1.008
11072 A 424 MF A2 12701 0.0 72.06679999999997
11073 opls_902 424 MF N12 12702 -0.407374 14.0067
11074 opls_145 424 MF C12 12703 0.682437 12.011
11075 opls_901 424 MF N22 12704 -0.299729 14.0067
11076 opls_157 424 MF C2 12705 0.024672 12.011
11077 opls_156 424 MF H021 12708 0.0 1.008
11078 opls_156 424 MF H022 12709 0.0 1.008
11079 opls_910 424 MF H31 12710 0.0 1.008
11080 A 424 MF A3 12711 0.0 72.06679999999997
11081 opls_902 424 MF N13 12712 -0.407483 14.0067
11082 opls_145 424 MF C13 12713 0.682492 12.011
11083 opls_901 424 MF N23 12714 -0.299758 14.0067
11084 opls_157 424 MF C3 12715 0.024689 12.011
11085 opls_156 424 MF H031 12718 0.0 1.008
11086 opls_156 424 MF H032 12719 0.0 1.008
11087 opls_910 424 MF H11 12720 0.0 1.008
11088 A 425 MF A1 12721 0.0 72.06679999999997
11089 opls_902 425 MF N11 12722 -0.407377 14.0067
11090 opls_145 425 MF C11 12723 0.682493 12.011
11091 opls_901 425 MF N21 12724 -0.299731 14.0067
11092 opls_157 425 MF C1 12725 0.024669 12.011
11093 opls_156 425 MF H011 12728 0.0 1.008
11094 opls_156 425 MF H012 12729 0.0 1.008
11095 opls_910 425 MF H21 12730 0.0 1.008
11096 A 425 MF A2 12731 0.0 72.06679999999997
11097 opls_902 425 MF N12 12732 -0.407374 14.0067
11098 opls_145 425 MF C12 12733 0.682437 12.011
11099 opls_901 425 MF N22 12734 -0.299729 14.0067
11100 opls_157 425 MF C2 12735 0.024672 12.011
11101 opls_156 425 MF H021 12738 0.0 1.008
11102 opls_156 425 MF H022 12739 0.0 1.008
11103 opls_910 425 MF H31 12740 0.0 1.008
11104 A 425 MF A3 12741 0.0 72.06679999999997
11105 opls_902 425 MF N13 12742 -0.407483 14.0067
11106 opls_145 425 MF C13 12743 0.682492 12.011
11107 opls_901 425 MF N23 12744 -0.299758 14.0067
11108 opls_157 425 MF C3 12745 0.024689 12.011
11109 opls_156 425 MF H031 12748 0.0 1.008
11110 opls_156 425 MF H032 12749 0.0 1.008
11111 opls_910 425 MF H11 12750 0.0 1.008
11112 A 426 MF A1 12751 0.0 72.06679999999997
11113 opls_902 426 MF N11 12752 -0.407377 14.0067
11114 opls_145 426 MF C11 12753 0.682493 12.011
11115 opls_901 426 MF N21 12754 -0.299731 14.0067
11116 opls_157 426 MF C1 12755 0.024669 12.011
11117 opls_156 426 MF H011 12758 0.0 1.008
11118 opls_156 426 MF H012 12759 0.0 1.008
11119 opls_910 426 MF H21 12760 0.0 1.008
11120 A 426 MF A2 12761 0.0 72.06679999999997
11121 opls_902 426 MF N12 12762 -0.407374 14.0067
11122 opls_145 426 MF C12 12763 0.682437 12.011
11123 opls_901 426 MF N22 12764 -0.299729 14.0067
11124 opls_157 426 MF C2 12765 0.024672 12.011
11125 opls_156 426 MF H021 12768 0.0 1.008
11126 opls_156 426 MF H022 12769 0.0 1.008
11127 opls_910 426 MF H31 12770 0.0 1.008
11128 A 426 MF A3 12771 0.0 72.06679999999997
11129 opls_902 426 MF N13 12772 -0.407483 14.0067
11130 opls_145 426 MF C13 12773 0.682492 12.011
11131 opls_901 426 MF N23 12774 -0.299758 14.0067
11132 opls_157 426 MF C3 12775 0.024689 12.011
11133 opls_154 426 MF O3 12776 0.0 15.9994
11134 opls_156 426 MF H031 12778 0.0 1.008
11135 opls_156 426 MF H032 12779 0.0 1.008
11136 opls_910 426 MF H11 12780 0.0 1.008
11137 A 427 MF A1 12781 0.0 72.06679999999997
11138 opls_902 427 MF N11 12782 -0.407377 14.0067
11139 opls_145 427 MF C11 12783 0.682493 12.011
11140 opls_901 427 MF N21 12784 -0.299731 14.0067
11141 opls_157 427 MF C1 12785 0.024669 12.011
11142 opls_156 427 MF H011 12788 0.0 1.008
11143 opls_156 427 MF H012 12789 0.0 1.008
11144 opls_910 427 MF H21 12790 0.0 1.008
11145 A 427 MF A2 12791 0.0 72.06679999999997
11146 opls_902 427 MF N12 12792 -0.407374 14.0067
11147 opls_145 427 MF C12 12793 0.682437 12.011
11148 opls_901 427 MF N22 12794 -0.299729 14.0067
11149 opls_157 427 MF C2 12795 0.024672 12.011
11150 opls_154 427 MF O2 12796 0.0 15.9994
11151 opls_156 427 MF H021 12798 0.0 1.008
11152 opls_156 427 MF H022 12799 0.0 1.008
11153 opls_910 427 MF H31 12800 0.0 1.008
11154 A 427 MF A3 12801 0.0 72.06679999999997
11155 opls_902 427 MF N13 12802 -0.407483 14.0067
11156 opls_145 427 MF C13 12803 0.682492 12.011
11157 opls_901 427 MF N23 12804 -0.299758 14.0067
11158 opls_157 427 MF C3 12805 0.024689 12.011
11159 opls_156 427 MF H031 12808 0.0 1.008
11160 opls_156 427 MF H032 12809 0.0 1.008
11161 opls_910 427 MF H11 12810 0.0 1.008
11162 A 428 MF A1 12811 0.0 72.06679999999997
11163 opls_902 428 MF N11 12812 -0.407377 14.0067
11164 opls_145 428 MF C11 12813 0.682493 12.011
11165 opls_901 428 MF N21 12814 -0.299731 14.0067
11166 opls_157 428 MF C1 12815 0.024669 12.011
11167 opls_156 428 MF H011 12818 0.0 1.008
11168 opls_156 428 MF H012 12819 0.0 1.008
11169 opls_910 428 MF H21 12820 0.0 1.008
11170 A 428 MF A2 12821 0.0 72.06679999999997
11171 opls_902 428 MF N12 12822 -0.407374 14.0067
11172 opls_145 428 MF C12 12823 0.682437 12.011
11173 opls_901 428 MF N22 12824 -0.299729 14.0067
11174 opls_157 428 MF C2 12825 0.024672 12.011
11175 opls_154 428 MF O2 12826 0.0 15.9994
11176 opls_155 428 MF H02 12827 0.0 1.008
11177 opls_156 428 MF H021 12828 0.0 1.008
11178 opls_156 428 MF H022 12829 0.0 1.008
11179 opls_910 428 MF H31 12830 0.0 1.008
11180 A 428 MF A3 12831 0.0 72.06679999999997
11181 opls_902 428 MF N13 12832 -0.407483 14.0067
11182 opls_145 428 MF C13 12833 0.682492 12.011
11183 opls_901 428 MF N23 12834 -0.299758 14.0067
11184 opls_157 428 MF C3 12835 0.024689 12.011
11185 opls_156 428 MF H031 12838 0.0 1.008
11186 opls_156 428 MF H032 12839 0.0 1.008
11187 opls_910 428 MF H11 12840 0.0 1.008
11188 A 429 MF A1 12841 0.0 72.06679999999997
11189 opls_902 429 MF N11 12842 -0.407377 14.0067
11190 opls_145 429 MF C11 12843 0.682493 12.011
11191 opls_901 429 MF N21 12844 -0.299731 14.0067
11192 opls_157 429 MF C1 12845 0.024669 12.011
11193 opls_156 429 MF H011 12848 0.0 1.008
11194 opls_156 429 MF H012 12849 0.0 1.008
11195 opls_910 429 MF H21 12850 0.0 1.008
11196 A 429 MF A2 12851 0.0 72.06679999999997
11197 opls_902 429 MF N12 12852 -0.407374 14.0067
11198 opls_145 429 MF C12 12853 0.682437 12.011
11199 opls_901 429 MF N22 12854 -0.299729 14.0067
11200 opls_157 429 MF C2 12855 0.024672 12.011
11201 opls_154 429 MF O2 12856 0.0 15.9994
11202 opls_155 429 MF H02 12857 0.0 1.008
11203 opls_156 429 MF H021 12858 0.0 1.008
11204 opls_156 429 MF H022 12859 0.0 1.008
11205 opls_910 429 MF H31 12860 0.0 1.008
11206 A 429 MF A3 12861 0.0 72.06679999999997
11207 opls_902 429 MF N13 12862 -0.407483 14.0067
11208 opls_145 429 MF C13 12863 0.682492 12.011
11209 opls_901 429 MF N23 12864 -0.299758 14.0067
11210 opls_157 429 MF C3 12865 0.024689 12.011
11211 opls_154 429 MF O3 12866 0.0 15.9994
11212 opls_155 429 MF H03 12867 0.0 1.008
11213 opls_156 429 MF H031 12868 0.0 1.008
11214 opls_156 429 MF H032 12869 0.0 1.008
11215 opls_910 429 MF H11 12870 0.0 1.008
11216 A 430 MF A1 12871 0.0 72.06679999999997
11217 opls_902 430 MF N11 12872 -0.407377 14.0067
11218 opls_145 430 MF C11 12873 0.682493 12.011
11219 opls_901 430 MF N21 12874 -0.299731 14.0067
11220 opls_157 430 MF C1 12875 0.024669 12.011
11221 opls_156 430 MF H011 12878 0.0 1.008
11222 opls_156 430 MF H012 12879 0.0 1.008
11223 opls_910 430 MF H21 12880 0.0 1.008
11224 A 430 MF A2 12881 0.0 72.06679999999997
11225 opls_902 430 MF N12 12882 -0.407374 14.0067
11226 opls_145 430 MF C12 12883 0.682437 12.011
11227 opls_901 430 MF N22 12884 -0.299729 14.0067
11228 opls_157 430 MF C2 12885 0.024672 12.011
11229 opls_154 430 MF O2 12886 0.0 15.9994
11230 opls_156 430 MF H021 12888 0.0 1.008
11231 opls_156 430 MF H022 12889 0.0 1.008
11232 opls_910 430 MF H31 12890 0.0 1.008
11233 A 430 MF A3 12891 0.0 72.06679999999997
11234 opls_902 430 MF N13 12892 -0.407483 14.0067
11235 opls_145 430 MF C13 12893 0.682492 12.011
11236 opls_901 430 MF N23 12894 -0.299758 14.0067
11237 opls_157 430 MF C3 12895 0.024689 12.011
11238 opls_154 430 MF O3 12896 0.0 15.9994
11239 opls_155 430 MF H03 12897 0.0 1.008
11240 opls_156 430 MF H031 12898 0.0 1.008
11241 opls_156 430 MF H032 12899 0.0 1.008
11242 opls_910 430 MF H11 12900 0.0 1.008
11243 A 431 MF A1 12901 0.0 72.06679999999997
11244 opls_902 431 MF N11 12902 -0.407377 14.0067
11245 opls_145 431 MF C11 12903 0.682493 12.011
11246 opls_901 431 MF N21 12904 -0.299731 14.0067
11247 opls_157 431 MF C1 12905 0.024669 12.011
11248 opls_156 431 MF H011 12908 0.0 1.008
11249 opls_156 431 MF H012 12909 0.0 1.008
11250 opls_910 431 MF H21 12910 0.0 1.008
11251 A 431 MF A2 12911 0.0 72.06679999999997
11252 opls_902 431 MF N12 12912 -0.407374 14.0067
11253 opls_145 431 MF C12 12913 0.682437 12.011
11254 opls_901 431 MF N22 12914 -0.299729 14.0067
11255 opls_157 431 MF C2 12915 0.024672 12.011
11256 opls_156 431 MF H021 12918 0.0 1.008
11257 opls_156 431 MF H022 12919 0.0 1.008
11258 opls_910 431 MF H31 12920 0.0 1.008
11259 A 431 MF A3 12921 0.0 72.06679999999997
11260 opls_902 431 MF N13 12922 -0.407483 14.0067
11261 opls_145 431 MF C13 12923 0.682492 12.011
11262 opls_901 431 MF N23 12924 -0.299758 14.0067
11263 opls_157 431 MF C3 12925 0.024689 12.011
11264 opls_156 431 MF H031 12928 0.0 1.008
11265 opls_156 431 MF H032 12929 0.0 1.008
11266 opls_910 431 MF H11 12930 0.0 1.008
11267 A 432 MF A1 12931 0.0 72.06679999999997
11268 opls_902 432 MF N11 12932 -0.407377 14.0067
11269 opls_145 432 MF C11 12933 0.682493 12.011
11270 opls_901 432 MF N21 12934 -0.299731 14.0067
11271 opls_157 432 MF C1 12935 0.024669 12.011
11272 opls_156 432 MF H011 12938 0.0 1.008
11273 opls_156 432 MF H012 12939 0.0 1.008
11274 opls_910 432 MF H21 12940 0.0 1.008
11275 A 432 MF A2 12941 0.0 72.06679999999997
11276 opls_902 432 MF N12 12942 -0.407374 14.0067
11277 opls_145 432 MF C12 12943 0.682437 12.011
11278 opls_901 432 MF N22 12944 -0.299729 14.0067
11279 opls_157 432 MF C2 12945 0.024672 12.011
11280 opls_154 432 MF O2 12946 0.0 15.9994
11281 opls_156 432 MF H021 12948 0.0 1.008
11282 opls_156 432 MF H022 12949 0.0 1.008
11283 opls_910 432 MF H31 12950 0.0 1.008
11284 A 432 MF A3 12951 0.0 72.06679999999997
11285 opls_902 432 MF N13 12952 -0.407483 14.0067
11286 opls_145 432 MF C13 12953 0.682492 12.011
11287 opls_901 432 MF N23 12954 -0.299758 14.0067
11288 opls_157 432 MF C3 12955 0.024689 12.011
11289 opls_156 432 MF H031 12958 0.0 1.008
11290 opls_156 432 MF H032 12959 0.0 1.008
11291 opls_910 432 MF H11 12960 0.0 1.008
11292 A 433 MF A1 12961 0.0 72.06679999999997
11293 opls_902 433 MF N11 12962 -0.407377 14.0067
11294 opls_145 433 MF C11 12963 0.682493 12.011
11295 opls_901 433 MF N21 12964 -0.299731 14.0067
11296 opls_157 433 MF C1 12965 0.024669 12.011
11297 opls_156 433 MF H011 12968 0.0 1.008
11298 opls_156 433 MF H012 12969 0.0 1.008
11299 opls_910 433 MF H21 12970 0.0 1.008
11300 A 433 MF A2 12971 0.0 72.06679999999997
11301 opls_902 433 MF N12 12972 -0.407374 14.0067
11302 opls_145 433 MF C12 12973 0.682437 12.011
11303 opls_901 433 MF N22 12974 -0.299729 14.0067
11304 opls_157 433 MF C2 12975 0.024672 12.011
11305 opls_156 433 MF H021 12978 0.0 1.008
11306 opls_156 433 MF H022 12979 0.0 1.008
11307 opls_910 433 MF H31 12980 0.0 1.008
11308 A 433 MF A3 12981 0.0 72.06679999999997
11309 opls_902 433 MF N13 12982 -0.407483 14.0067
11310 opls_145 433 MF C13 12983 0.682492 12.011
11311 opls_901 433 MF N23 12984 -0.299758 14.0067
11312 opls_157 433 MF C3 12985 0.024689 12.011
11313 opls_156 433 MF H031 12988 0.0 1.008
11314 opls_156 433 MF H032 12989 0.0 1.008
11315 opls_910 433 MF H11 12990 0.0 1.008
11316 A 434 MF A1 12991 0.0 72.06679999999997
11317 opls_902 434 MF N11 12992 -0.407377 14.0067
11318 opls_145 434 MF C11 12993 0.682493 12.011
11319 opls_901 434 MF N21 12994 -0.299731 14.0067
11320 opls_157 434 MF C1 12995 0.024669 12.011
11321 opls_156 434 MF H011 12998 0.0 1.008
11322 opls_156 434 MF H012 12999 0.0 1.008
11323 opls_910 434 MF H21 13000 0.0 1.008
11324 A 434 MF A2 13001 0.0 72.06679999999997
11325 opls_902 434 MF N12 13002 -0.407374 14.0067
11326 opls_145 434 MF C12 13003 0.682437 12.011
11327 opls_901 434 MF N22 13004 -0.299729 14.0067
11328 opls_157 434 MF C2 13005 0.024672 12.011
11329 opls_156 434 MF H021 13008 0.0 1.008
11330 opls_156 434 MF H022 13009 0.0 1.008
11331 opls_910 434 MF H31 13010 0.0 1.008
11332 A 434 MF A3 13011 0.0 72.06679999999997
11333 opls_902 434 MF N13 13012 -0.407483 14.0067
11334 opls_145 434 MF C13 13013 0.682492 12.011
11335 opls_901 434 MF N23 13014 -0.299758 14.0067
11336 opls_157 434 MF C3 13015 0.024689 12.011
11337 opls_156 434 MF H031 13018 0.0 1.008
11338 opls_156 434 MF H032 13019 0.0 1.008
11339 opls_910 434 MF H11 13020 0.0 1.008
11340 A 435 MF A1 13021 0.0 72.06679999999997
11341 opls_902 435 MF N11 13022 -0.407377 14.0067
11342 opls_145 435 MF C11 13023 0.682493 12.011
11343 opls_901 435 MF N21 13024 -0.299731 14.0067
11344 opls_157 435 MF C1 13025 0.024669 12.011
11345 opls_156 435 MF H011 13028 0.0 1.008
11346 opls_156 435 MF H012 13029 0.0 1.008
11347 opls_910 435 MF H21 13030 0.0 1.008
11348 A 435 MF A2 13031 0.0 72.06679999999997
11349 opls_902 435 MF N12 13032 -0.407374 14.0067
11350 opls_145 435 MF C12 13033 0.682437 12.011
11351 opls_901 435 MF N22 13034 -0.299729 14.0067
11352 opls_157 435 MF C2 13035 0.024672 12.011
11353 opls_156 435 MF H021 13038 0.0 1.008
11354 opls_156 435 MF H022 13039 0.0 1.008
11355 opls_910 435 MF H31 13040 0.0 1.008
11356 A 435 MF A3 13041 0.0 72.06679999999997
11357 opls_902 435 MF N13 13042 -0.407483 14.0067
11358 opls_145 435 MF C13 13043 0.682492 12.011
11359 opls_901 435 MF N23 13044 -0.299758 14.0067
11360 opls_157 435 MF C3 13045 0.024689 12.011
11361 opls_156 435 MF H031 13048 0.0 1.008
11362 opls_156 435 MF H032 13049 0.0 1.008
11363 opls_910 435 MF H11 13050 0.0 1.008
11364 A 436 MF A1 13051 0.0 72.06679999999997
11365 opls_902 436 MF N11 13052 -0.407377 14.0067
11366 opls_145 436 MF C11 13053 0.682493 12.011
11367 opls_901 436 MF N21 13054 -0.299731 14.0067
11368 opls_157 436 MF C1 13055 0.024669 12.011
11369 opls_156 436 MF H011 13058 0.0 1.008
11370 opls_156 436 MF H012 13059 0.0 1.008
11371 opls_910 436 MF H21 13060 0.0 1.008
11372 A 436 MF A2 13061 0.0 72.06679999999997
11373 opls_902 436 MF N12 13062 -0.407374 14.0067
11374 opls_145 436 MF C12 13063 0.682437 12.011
11375 opls_901 436 MF N22 13064 -0.299729 14.0067
11376 opls_157 436 MF C2 13065 0.024672 12.011
11377 opls_156 436 MF H021 13068 0.0 1.008
11378 opls_156 436 MF H022 13069 0.0 1.008
11379 opls_910 436 MF H31 13070 0.0 1.008
11380 A 436 MF A3 13071 0.0 72.06679999999997
11381 opls_902 436 MF N13 13072 -0.407483 14.0067
11382 opls_145 436 MF C13 13073 0.682492 12.011
11383 opls_901 436 MF N23 13074 -0.299758 14.0067
11384 opls_157 436 MF C3 13075 0.024689 12.011
11385 opls_156 436 MF H031 13078 0.0 1.008
11386 opls_156 436 MF H032 13079 0.0 1.008
11387 opls_910 436 MF H11 13080 0.0 1.008
11388 A 437 MF A1 13081 0.0 72.06679999999997
11389 opls_902 437 MF N11 13082 -0.407377 14.0067
11390 opls_145 437 MF C11 13083 0.682493 12.011
11391 opls_901 437 MF N21 13084 -0.299731 14.0067
11392 opls_157 437 MF C1 13085 0.024669 12.011
11393 opls_156 437 MF H011 13088 0.0 1.008
11394 opls_156 437 MF H012 13089 0.0 1.008
11395 opls_910 437 MF H21 13090 0.0 1.008
11396 A 437 MF A2 13091 0.0 72.06679999999997
11397 opls_902 437 MF N12 13092 -0.407374 14.0067
11398 opls_145 437 MF C12 13093 0.682437 12.011
11399 opls_901 437 MF N22 13094 -0.299729 14.0067
11400 opls_157 437 MF C2 13095 0.024672 12.011
11401 opls_154 437 MF O2 13096 0.0 15.9994
11402 opls_156 437 MF H021 13098 0.0 1.008
11403 opls_156 437 MF H022 13099 0.0 1.008
11404 opls_910 437 MF H31 13100 0.0 1.008
11405 A 437 MF A3 13101 0.0 72.06679999999997
11406 opls_902 437 MF N13 13102 -0.407483 14.0067
11407 opls_145 437 MF C13 13103 0.682492 12.011
11408 opls_901 437 MF N23 13104 -0.299758 14.0067
11409 opls_157 437 MF C3 13105 0.024689 12.011
11410 opls_156 437 MF H031 13108 0.0 1.008
11411 opls_156 437 MF H032 13109 0.0 1.008
11412 opls_910 437 MF H11 13110 0.0 1.008
11413 A 438 MF A1 13111 0.0 72.06679999999997
11414 opls_902 438 MF N11 13112 -0.407377 14.0067
11415 opls_145 438 MF C11 13113 0.682493 12.011
11416 opls_901 438 MF N21 13114 -0.299731 14.0067
11417 opls_157 438 MF C1 13115 0.024669 12.011
11418 opls_156 438 MF H011 13118 0.0 1.008
11419 opls_156 438 MF H012 13119 0.0 1.008
11420 opls_910 438 MF H21 13120 0.0 1.008
11421 A 438 MF A2 13121 0.0 72.06679999999997
11422 opls_902 438 MF N12 13122 -0.407374 14.0067
11423 opls_145 438 MF C12 13123 0.682437 12.011
11424 opls_901 438 MF N22 13124 -0.299729 14.0067
11425 opls_157 438 MF C2 13125 0.024672 12.011
11426 opls_156 438 MF H021 13128 0.0 1.008
11427 opls_156 438 MF H022 13129 0.0 1.008
11428 opls_910 438 MF H31 13130 0.0 1.008
11429 A 438 MF A3 13131 0.0 72.06679999999997
11430 opls_902 438 MF N13 13132 -0.407483 14.0067
11431 opls_145 438 MF C13 13133 0.682492 12.011
11432 opls_901 438 MF N23 13134 -0.299758 14.0067
11433 opls_157 438 MF C3 13135 0.024689 12.011
11434 opls_156 438 MF H031 13138 0.0 1.008
11435 opls_156 438 MF H032 13139 0.0 1.008
11436 opls_910 438 MF H11 13140 0.0 1.008
11437 A 439 MF A1 13141 0.0 72.06679999999997
11438 opls_902 439 MF N11 13142 -0.407377 14.0067
11439 opls_145 439 MF C11 13143 0.682493 12.011
11440 opls_901 439 MF N21 13144 -0.299731 14.0067
11441 opls_157 439 MF C1 13145 0.024669 12.011
11442 opls_156 439 MF H011 13148 0.0 1.008
11443 opls_156 439 MF H012 13149 0.0 1.008
11444 opls_910 439 MF H21 13150 0.0 1.008
11445 A 439 MF A2 13151 0.0 72.06679999999997
11446 opls_902 439 MF N12 13152 -0.407374 14.0067
11447 opls_145 439 MF C12 13153 0.682437 12.011
11448 opls_901 439 MF N22 13154 -0.299729 14.0067
11449 opls_157 439 MF C2 13155 0.024672 12.011
11450 opls_156 439 MF H021 13158 0.0 1.008
11451 opls_156 439 MF H022 13159 0.0 1.008
11452 opls_910 439 MF H31 13160 0.0 1.008
11453 A 439 MF A3 13161 0.0 72.06679999999997
11454 opls_902 439 MF N13 13162 -0.407483 14.0067
11455 opls_145 439 MF C13 13163 0.682492 12.011
11456 opls_901 439 MF N23 13164 -0.299758 14.0067
11457 opls_157 439 MF C3 13165 0.024689 12.011
11458 opls_156 439 MF H031 13168 0.0 1.008
11459 opls_156 439 MF H032 13169 0.0 1.008
11460 opls_910 439 MF H11 13170 0.0 1.008
11461 A 440 MF A1 13171 0.0 72.06679999999997
11462 opls_902 440 MF N11 13172 -0.407377 14.0067
11463 opls_145 440 MF C11 13173 0.682493 12.011
11464 opls_901 440 MF N21 13174 -0.299731 14.0067
11465 opls_157 440 MF C1 13175 0.024669 12.011
11466 opls_156 440 MF H011 13178 0.0 1.008
11467 opls_156 440 MF H012 13179 0.0 1.008
11468 opls_910 440 MF H21 13180 0.0 1.008
11469 A 440 MF A2 13181 0.0 72.06679999999997
11470 opls_902 440 MF N12 13182 -0.407374 14.0067
11471 opls_145 440 MF C12 13183 0.682437 12.011
11472 opls_901 440 MF N22 13184 -0.299729 14.0067
11473 opls_157 440 MF C2 13185 0.024672 12.011
11474 opls_154 440 MF O2 13186 0.0 15.9994
11475 opls_155 440 MF H02 13187 0.0 1.008
11476 opls_156 440 MF H021 13188 0.0 1.008
11477 opls_156 440 MF H022 13189 0.0 1.008
11478 opls_910 440 MF H31 13190 0.0 1.008
11479 A 440 MF A3 13191 0.0 72.06679999999997
11480 opls_902 440 MF N13 13192 -0.407483 14.0067
11481 opls_145 440 MF C13 13193 0.682492 12.011
11482 opls_901 440 MF N23 13194 -0.299758 14.0067
11483 opls_157 440 MF C3 13195 0.024689 12.011
11484 opls_156 440 MF H031 13198 0.0 1.008
11485 opls_156 440 MF H032 13199 0.0 1.008
11486 opls_910 440 MF H11 13200 0.0 1.008
11487 A 441 MF A1 13201 0.0 72.06679999999997
11488 opls_902 441 MF N11 13202 -0.407377 14.0067
11489 opls_145 441 MF C11 13203 0.682493 12.011
11490 opls_901 441 MF N21 13204 -0.299731 14.0067
11491 opls_157 441 MF C1 13205 0.024669 12.011
11492 opls_156 441 MF H011 13208 0.0 1.008
11493 opls_156 441 MF H012 13209 0.0 1.008
11494 opls_910 441 MF H21 13210 0.0 1.008
11495 A 441 MF A2 13211 0.0 72.06679999999997
11496 opls_902 441 MF N12 13212 -0.407374 14.0067
11497 opls_145 441 MF C12 13213 0.682437 12.011
11498 opls_901 441 MF N22 13214 -0.299729 14.0067
11499 opls_157 441 MF C2 13215 0.024672 12.011
11500 opls_156 441 MF H021 13218 0.0 1.008
11501 opls_156 441 MF H022 13219 0.0 1.008
11502 opls_910 441 MF H31 13220 0.0 1.008
11503 A 441 MF A3 13221 0.0 72.06679999999997
11504 opls_902 441 MF N13 13222 -0.407483 14.0067
11505 opls_145 441 MF C13 13223 0.682492 12.011
11506 opls_901 441 MF N23 13224 -0.299758 14.0067
11507 opls_157 441 MF C3 13225 0.024689 12.011
11508 opls_156 441 MF H031 13228 0.0 1.008
11509 opls_156 441 MF H032 13229 0.0 1.008
11510 opls_910 441 MF H11 13230 0.0 1.008
11511 A 442 MF A1 13231 0.0 72.06679999999997
11512 opls_902 442 MF N11 13232 -0.407377 14.0067
11513 opls_145 442 MF C11 13233 0.682493 12.011
11514 opls_901 442 MF N21 13234 -0.299731 14.0067
11515 opls_157 442 MF C1 13235 0.024669 12.011
11516 opls_156 442 MF H011 13238 0.0 1.008
11517 opls_156 442 MF H012 13239 0.0 1.008
11518 opls_910 442 MF H21 13240 0.0 1.008
11519 A 442 MF A2 13241 0.0 72.06679999999997
11520 opls_902 442 MF N12 13242 -0.407374 14.0067
11521 opls_145 442 MF C12 13243 0.682437 12.011
11522 opls_901 442 MF N22 13244 -0.299729 14.0067
11523 opls_157 442 MF C2 13245 0.024672 12.011
11524 opls_154 442 MF O2 13246 0.0 15.9994
11525 opls_155 442 MF H02 13247 0.0 1.008
11526 opls_156 442 MF H021 13248 0.0 1.008
11527 opls_156 442 MF H022 13249 0.0 1.008
11528 opls_910 442 MF H31 13250 0.0 1.008
11529 A 442 MF A3 13251 0.0 72.06679999999997
11530 opls_902 442 MF N13 13252 -0.407483 14.0067
11531 opls_145 442 MF C13 13253 0.682492 12.011
11532 opls_901 442 MF N23 13254 -0.299758 14.0067
11533 opls_157 442 MF C3 13255 0.024689 12.011
11534 opls_154 442 MF O3 13256 0.0 15.9994
11535 opls_155 442 MF H03 13257 0.0 1.008
11536 opls_156 442 MF H031 13258 0.0 1.008
11537 opls_156 442 MF H032 13259 0.0 1.008
11538 opls_910 442 MF H11 13260 0.0 1.008
11539 A 443 MF A1 13261 0.0 72.06679999999997
11540 opls_902 443 MF N11 13262 -0.407377 14.0067
11541 opls_145 443 MF C11 13263 0.682493 12.011
11542 opls_901 443 MF N21 13264 -0.299731 14.0067
11543 opls_157 443 MF C1 13265 0.024669 12.011
11544 opls_156 443 MF H011 13268 0.0 1.008
11545 opls_156 443 MF H012 13269 0.0 1.008
11546 opls_910 443 MF H21 13270 0.0 1.008
11547 A 443 MF A2 13271 0.0 72.06679999999997
11548 opls_902 443 MF N12 13272 -0.407374 14.0067
11549 opls_145 443 MF C12 13273 0.682437 12.011
11550 opls_901 443 MF N22 13274 -0.299729 14.0067
11551 opls_157 443 MF C2 13275 0.024672 12.011
11552 opls_156 443 MF H021 13278 0.0 1.008
11553 opls_156 443 MF H022 13279 0.0 1.008
11554 opls_910 443 MF H31 13280 0.0 1.008
11555 A 443 MF A3 13281 0.0 72.06679999999997
11556 opls_902 443 MF N13 13282 -0.407483 14.0067
11557 opls_145 443 MF C13 13283 0.682492 12.011
11558 opls_901 443 MF N23 13284 -0.299758 14.0067
11559 opls_157 443 MF C3 13285 0.024689 12.011
11560 opls_154 443 MF O3 13286 0.0 15.9994
11561 opls_156 443 MF H031 13288 0.0 1.008
11562 opls_156 443 MF H032 13289 0.0 1.008
11563 opls_910 443 MF H11 13290 0.0 1.008
11564 A 444 MF A1 13291 0.0 72.06679999999997
11565 opls_902 444 MF N11 13292 -0.407377 14.0067
11566 opls_145 444 MF C11 13293 0.682493 12.011
11567 opls_901 444 MF N21 13294 -0.299731 14.0067
11568 opls_157 444 MF C1 13295 0.024669 12.011
11569 opls_156 444 MF H011 13298 0.0 1.008
11570 opls_156 444 MF H012 13299 0.0 1.008
11571 opls_910 444 MF H21 13300 0.0 1.008
11572 A 444 MF A2 13301 0.0 72.06679999999997
11573 opls_902 444 MF N12 13302 -0.407374 14.0067
11574 opls_145 444 MF C12 13303 0.682437 12.011
11575 opls_901 444 MF N22 13304 -0.299729 14.0067
11576 opls_157 444 MF C2 13305 0.024672 12.011
11577 opls_156 444 MF H021 13308 0.0 1.008
11578 opls_156 444 MF H022 13309 0.0 1.008
11579 opls_910 444 MF H31 13310 0.0 1.008
11580 A 444 MF A3 13311 0.0 72.06679999999997
11581 opls_902 444 MF N13 13312 -0.407483 14.0067
11582 opls_145 444 MF C13 13313 0.682492 12.011
11583 opls_901 444 MF N23 13314 -0.299758 14.0067
11584 opls_157 444 MF C3 13315 0.024689 12.011
11585 opls_156 444 MF H031 13318 0.0 1.008
11586 opls_156 444 MF H032 13319 0.0 1.008
11587 opls_910 444 MF H11 13320 0.0 1.008
11588 A 445 MF A1 13321 0.0 72.06679999999997
11589 opls_902 445 MF N11 13322 -0.407377 14.0067
11590 opls_145 445 MF C11 13323 0.682493 12.011
11591 opls_901 445 MF N21 13324 -0.299731 14.0067
11592 opls_157 445 MF C1 13325 0.024669 12.011
11593 opls_156 445 MF H011 13328 0.0 1.008
11594 opls_156 445 MF H012 13329 0.0 1.008
11595 opls_910 445 MF H21 13330 0.0 1.008
11596 A 445 MF A2 13331 0.0 72.06679999999997
11597 opls_902 445 MF N12 13332 -0.407374 14.0067
11598 opls_145 445 MF C12 13333 0.682437 12.011
11599 opls_901 445 MF N22 13334 -0.299729 14.0067
11600 opls_157 445 MF C2 13335 0.024672 12.011
11601 opls_154 445 MF O2 13336 0.0 15.9994
11602 opls_155 445 MF H02 13337 0.0 1.008
11603 opls_156 445 MF H021 13338 0.0 1.008
11604 opls_156 445 MF H022 13339 0.0 1.008
11605 opls_910 445 MF H31 13340 0.0 1.008
11606 A 445 MF A3 13341 0.0 72.06679999999997
11607 opls_902 445 MF N13 13342 -0.407483 14.0067
11608 opls_145 445 MF C13 13343 0.682492 12.011
11609 opls_901 445 MF N23 13344 -0.299758 14.0067
11610 opls_157 445 MF C3 13345 0.024689 12.011
11611 opls_156 445 MF H031 13348 0.0 1.008
11612 opls_156 445 MF H032 13349 0.0 1.008
11613 opls_910 445 MF H11 13350 0.0 1.008
11614 A 446 MF A1 13351 0.0 72.06679999999997
11615 opls_902 446 MF N11 13352 -0.407377 14.0067
11616 opls_145 446 MF C11 13353 0.682493 12.011
11617 opls_901 446 MF N21 13354 -0.299731 14.0067
11618 opls_157 446 MF C1 13355 0.024669 12.011
11619 opls_156 446 MF H011 13358 0.0 1.008
11620 opls_156 446 MF H012 13359 0.0 1.008
11621 opls_910 446 MF H21 13360 0.0 1.008
11622 A 446 MF A2 13361 0.0 72.06679999999997
11623 opls_902 446 MF N12 13362 -0.407374 14.0067
11624 opls_145 446 MF C12 13363 0.682437 12.011
11625 opls_901 446 MF N22 13364 -0.299729 14.0067
11626 opls_157 446 MF C2 13365 0.024672 12.011
11627 opls_156 446 MF H021 13368 0.0 1.008
11628 opls_156 446 MF H022 13369 0.0 1.008
11629 opls_910 446 MF H31 13370 0.0 1.008
11630 A 446 MF A3 13371 0.0 72.06679999999997
11631 opls_902 446 MF N13 13372 -0.407483 14.0067
11632 opls_145 446 MF C13 13373 0.682492 12.011
11633 opls_901 446 MF N23 13374 -0.299758 14.0067
11634 opls_157 446 MF C3 13375 0.024689 12.011
11635 opls_156 446 MF H031 13378 0.0 1.008
11636 opls_156 446 MF H032 13379 0.0 1.008
11637 opls_910 446 MF H11 13380 0.0 1.008
11638 A 447 MF A1 13381 0.0 72.06679999999997
11639 opls_902 447 MF N11 13382 -0.407377 14.0067
11640 opls_145 447 MF C11 13383 0.682493 12.011
11641 opls_901 447 MF N21 13384 -0.299731 14.0067
11642 opls_157 447 MF C1 13385 0.024669 12.011
11643 opls_156 447 MF H011 13388 0.0 1.008
11644 opls_156 447 MF H012 13389 0.0 1.008
11645 opls_910 447 MF H21 13390 0.0 1.008
11646 A 447 MF A2 13391 0.0 72.06679999999997
11647 opls_902 447 MF N12 13392 -0.407374 14.0067
11648 opls_145 447 MF C12 13393 0.682437 12.011
11649 opls_901 447 MF N22 13394 -0.299729 14.0067
11650 opls_157 447 MF C2 13395 0.024672 12.011
11651 opls_156 447 MF H021 13398 0.0 1.008
11652 opls_156 447 MF H022 13399 0.0 1.008
11653 opls_910 447 MF H31 13400 0.0 1.008
11654 A 447 MF A3 13401 0.0 72.06679999999997
11655 opls_902 447 MF N13 13402 -0.407483 14.0067
11656 opls_145 447 MF C13 13403 0.682492 12.011
11657 opls_901 447 MF N23 13404 -0.299758 14.0067
11658 opls_157 447 MF C3 13405 0.024689 12.011
11659 opls_156 447 MF H031 13408 0.0 1.008
11660 opls_156 447 MF H032 13409 0.0 1.008
11661 opls_910 447 MF H11 13410 0.0 1.008
11662 A 448 MF A1 13411 0.0 72.06679999999997
11663 opls_902 448 MF N11 13412 -0.407377 14.0067
11664 opls_145 448 MF C11 13413 0.682493 12.011
11665 opls_901 448 MF N21 13414 -0.299731 14.0067
11666 opls_157 448 MF C1 13415 0.024669 12.011
11667 opls_154 448 MF O1 13416 0.0 15.9994
11668 opls_155 448 MF H01 13417 0.0 1.008
11669 opls_156 448 MF H011 13418 0.0 1.008
11670 opls_156 448 MF H012 13419 0.0 1.008
11671 opls_910 448 MF H21 13420 0.0 1.008
11672 A 448 MF A2 13421 0.0 72.06679999999997
11673 opls_902 448 MF N12 13422 -0.407374 14.0067
11674 opls_145 448 MF C12 13423 0.682437 12.011
11675 opls_901 448 MF N22 13424 -0.299729 14.0067
11676 opls_157 448 MF C2 13425 0.024672 12.011
11677 opls_154 448 MF O2 13426 0.0 15.9994
11678 opls_155 448 MF H02 13427 0.0 1.008
11679 opls_156 448 MF H021 13428 0.0 1.008
11680 opls_156 448 MF H022 13429 0.0 1.008
11681 opls_910 448 MF H31 13430 0.0 1.008
11682 A 448 MF A3 13431 0.0 72.06679999999997
11683 opls_902 448 MF N13 13432 -0.407483 14.0067
11684 opls_145 448 MF C13 13433 0.682492 12.011
11685 opls_901 448 MF N23 13434 -0.299758 14.0067
11686 opls_157 448 MF C3 13435 0.024689 12.011
11687 opls_156 448 MF H031 13438 0.0 1.008
11688 opls_156 448 MF H032 13439 0.0 1.008
11689 opls_910 448 MF H11 13440 0.0 1.008
11690 A 449 MF A1 13441 0.0 72.06679999999997
11691 opls_902 449 MF N11 13442 -0.407377 14.0067
11692 opls_145 449 MF C11 13443 0.682493 12.011
11693 opls_901 449 MF N21 13444 -0.299731 14.0067
11694 opls_157 449 MF C1 13445 0.024669 12.011
11695 opls_156 449 MF H011 13448 0.0 1.008
11696 opls_156 449 MF H012 13449 0.0 1.008
11697 opls_910 449 MF H21 13450 0.0 1.008
11698 A 449 MF A2 13451 0.0 72.06679999999997
11699 opls_902 449 MF N12 13452 -0.407374 14.0067
11700 opls_145 449 MF C12 13453 0.682437 12.011
11701 opls_901 449 MF N22 13454 -0.299729 14.0067
11702 opls_157 449 MF C2 13455 0.024672 12.011
11703 opls_156 449 MF H021 13458 0.0 1.008
11704 opls_156 449 MF H022 13459 0.0 1.008
11705 opls_910 449 MF H31 13460 0.0 1.008
11706 A 449 MF A3 13461 0.0 72.06679999999997
11707 opls_902 449 MF N13 13462 -0.407483 14.0067
11708 opls_145 449 MF C13 13463 0.682492 12.011
11709 opls_901 449 MF N23 13464 -0.299758 14.0067
11710 opls_157 449 MF C3 13465 0.024689 12.011
11711 opls_154 449 MF O3 13466 0.0 15.9994
11712 opls_156 449 MF H031 13468 0.0 1.008
11713 opls_156 449 MF H032 13469 0.0 1.008
11714 opls_910 449 MF H11 13470 0.0 1.008
11715 A 450 MF A1 13471 0.0 72.06679999999997
11716 opls_902 450 MF N11 13472 -0.407377 14.0067
11717 opls_145 450 MF C11 13473 0.682493 12.011
11718 opls_901 450 MF N21 13474 -0.299731 14.0067
11719 opls_157 450 MF C1 13475 0.024669 12.011
11720 opls_156 450 MF H011 13478 0.0 1.008
11721 opls_156 450 MF H012 13479 0.0 1.008
11722 opls_910 450 MF H21 13480 0.0 1.008
11723 A 450 MF A2 13481 0.0 72.06679999999997
11724 opls_902 450 MF N12 13482 -0.407374 14.0067
11725 opls_145 450 MF C12 13483 0.682437 12.011
11726 opls_901 450 MF N22 13484 -0.299729 14.0067
11727 opls_157 450 MF C2 13485 0.024672 12.011
11728 opls_156 450 MF H021 13488 0.0 1.008
11729 opls_156 450 MF H022 13489 0.0 1.008
11730 opls_910 450 MF H31 13490 0.0 1.008
11731 A 450 MF A3 13491 0.0 72.06679999999997
11732 opls_902 450 MF N13 13492 -0.407483 14.0067
11733 opls_145 450 MF C13 13493 0.682492 12.011
11734 opls_901 450 MF N23 13494 -0.299758 14.0067
11735 opls_157 450 MF C3 13495 0.024689 12.011
11736 opls_156 450 MF H031 13498 0.0 1.008
11737 opls_156 450 MF H032 13499 0.0 1.008
11738 opls_910 450 MF H11 13500 0.0 1.008
11739 A 451 MF A1 13501 0.0 72.06679999999997
11740 opls_902 451 MF N11 13502 -0.407377 14.0067
11741 opls_145 451 MF C11 13503 0.682493 12.011
11742 opls_901 451 MF N21 13504 -0.299731 14.0067
11743 opls_157 451 MF C1 13505 0.024669 12.011
11744 opls_156 451 MF H011 13508 0.0 1.008
11745 opls_156 451 MF H012 13509 0.0 1.008
11746 opls_910 451 MF H21 13510 0.0 1.008
11747 A 451 MF A2 13511 0.0 72.06679999999997
11748 opls_902 451 MF N12 13512 -0.407374 14.0067
11749 opls_145 451 MF C12 13513 0.682437 12.011
11750 opls_901 451 MF N22 13514 -0.299729 14.0067
11751 opls_157 451 MF C2 13515 0.024672 12.011
11752 opls_156 451 MF H021 13518 0.0 1.008
11753 opls_156 451 MF H022 13519 0.0 1.008
11754 opls_910 451 MF H31 13520 0.0 1.008
11755 A 451 MF A3 13521 0.0 72.06679999999997
11756 opls_902 451 MF N13 13522 -0.407483 14.0067
11757 opls_145 451 MF C13 13523 0.682492 12.011
11758 opls_901 451 MF N23 13524 -0.299758 14.0067
11759 opls_157 451 MF C3 13525 0.024689 12.011
11760 opls_156 451 MF H031 13528 0.0 1.008
11761 opls_156 451 MF H032 13529 0.0 1.008
11762 opls_910 451 MF H11 13530 0.0 1.008
11763 A 452 MF A1 13531 0.0 72.06679999999997
11764 opls_902 452 MF N11 13532 -0.407377 14.0067
11765 opls_145 452 MF C11 13533 0.682493 12.011
11766 opls_901 452 MF N21 13534 -0.299731 14.0067
11767 opls_157 452 MF C1 13535 0.024669 12.011
11768 opls_156 452 MF H011 13538 0.0 1.008
11769 opls_156 452 MF H012 13539 0.0 1.008
11770 opls_910 452 MF H21 13540 0.0 1.008
11771 A 452 MF A2 13541 0.0 72.06679999999997
11772 opls_902 452 MF N12 13542 -0.407374 14.0067
11773 opls_145 452 MF C12 13543 0.682437 12.011
11774 opls_901 452 MF N22 13544 -0.299729 14.0067
11775 opls_157 452 MF C2 13545 0.024672 12.011
11776 opls_156 452 MF H021 13548 0.0 1.008
11777 opls_156 452 MF H022 13549 0.0 1.008
11778 opls_910 452 MF H31 13550 0.0 1.008
11779 A 452 MF A3 13551 0.0 72.06679999999997
11780 opls_902 452 MF N13 13552 -0.407483 14.0067
11781 opls_145 452 MF C13 13553 0.682492 12.011
11782 opls_901 452 MF N23 13554 -0.299758 14.0067
11783 opls_157 452 MF C3 13555 0.024689 12.011
11784 opls_156 452 MF H031 13558 0.0 1.008
11785 opls_156 452 MF H032 13559 0.0 1.008
11786 opls_910 452 MF H11 13560 0.0 1.008
11787 A 453 MF A1 13561 0.0 72.06679999999997
11788 opls_902 453 MF N11 13562 -0.407377 14.0067
11789 opls_145 453 MF C11 13563 0.682493 12.011
11790 opls_901 453 MF N21 13564 -0.299731 14.0067
11791 opls_157 453 MF C1 13565 0.024669 12.011
11792 opls_154 453 MF O1 13566 0.0 15.9994
11793 opls_156 453 MF H011 13568 0.0 1.008
11794 opls_156 453 MF H012 13569 0.0 1.008
11795 opls_910 453 MF H21 13570 0.0 1.008
11796 A 453 MF A2 13571 0.0 72.06679999999997
11797 opls_902 453 MF N12 13572 -0.407374 14.0067
11798 opls_145 453 MF C12 13573 0.682437 12.011
11799 opls_901 453 MF N22 13574 -0.299729 14.0067
11800 opls_157 453 MF C2 13575 0.024672 12.011
11801 opls_156 453 MF H021 13578 0.0 1.008
11802 opls_156 453 MF H022 13579 0.0 1.008
11803 opls_910 453 MF H31 13580 0.0 1.008
11804 A 453 MF A3 13581 0.0 72.06679999999997
11805 opls_902 453 MF N13 13582 -0.407483 14.0067
11806 opls_145 453 MF C13 13583 0.682492 12.011
11807 opls_901 453 MF N23 13584 -0.299758 14.0067
11808 opls_157 453 MF C3 13585 0.024689 12.011
11809 opls_156 453 MF H031 13588 0.0 1.008
11810 opls_156 453 MF H032 13589 0.0 1.008
11811 opls_910 453 MF H11 13590 0.0 1.008
11812 A 454 MF A1 13591 0.0 72.06679999999997
11813 opls_902 454 MF N11 13592 -0.407377 14.0067
11814 opls_145 454 MF C11 13593 0.682493 12.011
11815 opls_901 454 MF N21 13594 -0.299731 14.0067
11816 opls_157 454 MF C1 13595 0.024669 12.011
11817 opls_156 454 MF H011 13598 0.0 1.008
11818 opls_156 454 MF H012 13599 0.0 1.008
11819 opls_910 454 MF H21 13600 0.0 1.008
11820 A 454 MF A2 13601 0.0 72.06679999999997
11821 opls_902 454 MF N12 13602 -0.407374 14.0067
11822 opls_145 454 MF C12 13603 0.682437 12.011
11823 opls_901 454 MF N22 13604 -0.299729 14.0067
11824 opls_157 454 MF C2 13605 0.024672 12.011
11825 opls_156 454 MF H021 13608 0.0 1.008
11826 opls_156 454 MF H022 13609 0.0 1.008
11827 opls_910 454 MF H31 13610 0.0 1.008
11828 A 454 MF A3 13611 0.0 72.06679999999997
11829 opls_902 454 MF N13 13612 -0.407483 14.0067
11830 opls_145 454 MF C13 13613 0.682492 12.011
11831 opls_901 454 MF N23 13614 -0.299758 14.0067
11832 opls_157 454 MF C3 13615 0.024689 12.011
11833 opls_154 454 MF O3 13616 0.0 15.9994
11834 opls_156 454 MF H031 13618 0.0 1.008
11835 opls_156 454 MF H032 13619 0.0 1.008
11836 opls_910 454 MF H11 13620 0.0 1.008
11837 A 455 MF A1 13621 0.0 72.06679999999997
11838 opls_902 455 MF N11 13622 -0.407377 14.0067
11839 opls_145 455 MF C11 13623 0.682493 12.011
11840 opls_901 455 MF N21 13624 -0.299731 14.0067
11841 opls_157 455 MF C1 13625 0.024669 12.011
11842 opls_156 455 MF H011 13628 0.0 1.008
11843 opls_156 455 MF H012 13629 0.0 1.008
11844 opls_910 455 MF H21 13630 0.0 1.008
11845 A 455 MF A2 13631 0.0 72.06679999999997
11846 opls_902 455 MF N12 13632 -0.407374 14.0067
11847 opls_145 455 MF C12 13633 0.682437 12.011
11848 opls_901 455 MF N22 13634 -0.299729 14.0067
11849 opls_157 455 MF C2 13635 0.024672 12.011
11850 opls_156 455 MF H021 13638 0.0 1.008
11851 opls_156 455 MF H022 13639 0.0 1.008
11852 opls_910 455 MF H31 13640 0.0 1.008
11853 A 455 MF A3 13641 0.0 72.06679999999997
11854 opls_902 455 MF N13 13642 -0.407483 14.0067
11855 opls_145 455 MF C13 13643 0.682492 12.011
11856 opls_901 455 MF N23 13644 -0.299758 14.0067
11857 opls_157 455 MF C3 13645 0.024689 12.011
11858 opls_154 455 MF O3 13646 0.0 15.9994
11859 opls_156 455 MF H031 13648 0.0 1.008
11860 opls_156 455 MF H032 13649 0.0 1.008
11861 opls_910 455 MF H11 13650 0.0 1.008
11862 A 456 MF A1 13651 0.0 72.06679999999997
11863 opls_902 456 MF N11 13652 -0.407377 14.0067
11864 opls_145 456 MF C11 13653 0.682493 12.011
11865 opls_901 456 MF N21 13654 -0.299731 14.0067
11866 opls_157 456 MF C1 13655 0.024669 12.011
11867 opls_156 456 MF H011 13658 0.0 1.008
11868 opls_156 456 MF H012 13659 0.0 1.008
11869 opls_910 456 MF H21 13660 0.0 1.008
11870 A 456 MF A2 13661 0.0 72.06679999999997
11871 opls_902 456 MF N12 13662 -0.407374 14.0067
11872 opls_145 456 MF C12 13663 0.682437 12.011
11873 opls_901 456 MF N22 13664 -0.299729 14.0067
11874 opls_157 456 MF C2 13665 0.024672 12.011
11875 opls_156 456 MF H021 13668 0.0 1.008
11876 opls_156 456 MF H022 13669 0.0 1.008
11877 opls_910 456 MF H31 13670 0.0 1.008
11878 A 456 MF A3 13671 0.0 72.06679999999997
11879 opls_902 456 MF N13 13672 -0.407483 14.0067
11880 opls_145 456 MF C13 13673 0.682492 12.011
11881 opls_901 456 MF N23 13674 -0.299758 14.0067
11882 opls_157 456 MF C3 13675 0.024689 12.011
11883 opls_156 456 MF H031 13678 0.0 1.008
11884 opls_156 456 MF H032 13679 0.0 1.008
11885 opls_910 456 MF H11 13680 0.0 1.008
11886 A 457 MF A1 13681 0.0 72.06679999999997
11887 opls_902 457 MF N11 13682 -0.407377 14.0067
11888 opls_145 457 MF C11 13683 0.682493 12.011
11889 opls_901 457 MF N21 13684 -0.299731 14.0067
11890 opls_157 457 MF C1 13685 0.024669 12.011
11891 opls_156 457 MF H011 13688 0.0 1.008
11892 opls_156 457 MF H012 13689 0.0 1.008
11893 opls_910 457 MF H21 13690 0.0 1.008
11894 A 457 MF A2 13691 0.0 72.06679999999997
11895 opls_902 457 MF N12 13692 -0.407374 14.0067
11896 opls_145 457 MF C12 13693 0.682437 12.011
11897 opls_901 457 MF N22 13694 -0.299729 14.0067
11898 opls_157 457 MF C2 13695 0.024672 12.011
11899 opls_156 457 MF H021 13698 0.0 1.008
11900 opls_156 457 MF H022 13699 0.0 1.008
11901 opls_910 457 MF H31 13700 0.0 1.008
11902 A 457 MF A3 13701 0.0 72.06679999999997
11903 opls_902 457 MF N13 13702 -0.407483 14.0067
11904 opls_145 457 MF C13 13703 0.682492 12.011
11905 opls_901 457 MF N23 13704 -0.299758 14.0067
11906 opls_157 457 MF C3 13705 0.024689 12.011
11907 opls_154 457 MF O3 13706 0.0 15.9994
11908 opls_156 457 MF H031 13708 0.0 1.008
11909 opls_156 457 MF H032 13709 0.0 1.008
11910 opls_910 457 MF H11 13710 0.0 1.008
11911 A 458 MF A1 13711 0.0 72.06679999999997
11912 opls_902 458 MF N11 13712 -0.407377 14.0067
11913 opls_145 458 MF C11 13713 0.682493 12.011
11914 opls_901 458 MF N21 13714 -0.299731 14.0067
11915 opls_157 458 MF C1 13715 0.024669 12.011
11916 opls_156 458 MF H011 13718 0.0 1.008
11917 opls_156 458 MF H012 13719 0.0 1.008
11918 opls_910 458 MF H21 13720 0.0 1.008
11919 A 458 MF A2 13721 0.0 72.06679999999997
11920 opls_902 458 MF N12 13722 -0.407374 14.0067
11921 opls_145 458 MF C12 13723 0.682437 12.011
11922 opls_901 458 MF N22 13724 -0.299729 14.0067
11923 opls_157 458 MF C2 13725 0.024672 12.011
11924 opls_156 458 MF H021 13728 0.0 1.008
11925 opls_156 458 MF H022 13729 0.0 1.008
11926 opls_910 458 MF H31 13730 0.0 1.008
11927 A 458 MF A3 13731 0.0 72.06679999999997
11928 opls_902 458 MF N13 13732 -0.407483 14.0067
11929 opls_145 458 MF C13 13733 0.682492 12.011
11930 opls_901 458 MF N23 13734 -0.299758 14.0067
11931 opls_157 458 MF C3 13735 0.024689 12.011
11932 opls_154 458 MF O3 13736 0.0 15.9994
11933 opls_156 458 MF H031 13738 0.0 1.008
11934 opls_156 458 MF H032 13739 0.0 1.008
11935 opls_910 458 MF H11 13740 0.0 1.008
11936 A 459 MF A1 13741 0.0 72.06679999999997
11937 opls_902 459 MF N11 13742 -0.407377 14.0067
11938 opls_145 459 MF C11 13743 0.682493 12.011
11939 opls_901 459 MF N21 13744 -0.299731 14.0067
11940 opls_157 459 MF C1 13745 0.024669 12.011
11941 opls_156 459 MF H011 13748 0.0 1.008
11942 opls_156 459 MF H012 13749 0.0 1.008
11943 opls_910 459 MF H21 13750 0.0 1.008
11944 A 459 MF A2 13751 0.0 72.06679999999997
11945 opls_902 459 MF N12 13752 -0.407374 14.0067
11946 opls_145 459 MF C12 13753 0.682437 12.011
11947 opls_901 459 MF N22 13754 -0.299729 14.0067
11948 opls_157 459 MF C2 13755 0.024672 12.011
11949 opls_156 459 MF H021 13758 0.0 1.008
11950 opls_156 459 MF H022 13759 0.0 1.008
11951 opls_910 459 MF H31 13760 0.0 1.008
11952 A 459 MF A3 13761 0.0 72.06679999999997
11953 opls_902 459 MF N13 13762 -0.407483 14.0067
11954 opls_145 459 MF C13 13763 0.682492 12.011
11955 opls_901 459 MF N23 13764 -0.299758 14.0067
11956 opls_157 459 MF C3 13765 0.024689 12.011
11957 opls_156 459 MF H031 13768 0.0 1.008
11958 opls_156 459 MF H032 13769 0.0 1.008
11959 opls_910 459 MF H11 13770 0.0 1.008
11960 A 460 MF A1 13771 0.0 72.06679999999997
11961 opls_902 460 MF N11 13772 -0.407377 14.0067
11962 opls_145 460 MF C11 13773 0.682493 12.011
11963 opls_901 460 MF N21 13774 -0.299731 14.0067
11964 opls_157 460 MF C1 13775 0.024669 12.011
11965 opls_156 460 MF H011 13778 0.0 1.008
11966 opls_156 460 MF H012 13779 0.0 1.008
11967 opls_910 460 MF H21 13780 0.0 1.008
11968 A 460 MF A2 13781 0.0 72.06679999999997
11969 opls_902 460 MF N12 13782 -0.407374 14.0067
11970 opls_145 460 MF C12 13783 0.682437 12.011
11971 opls_901 460 MF N22 13784 -0.299729 14.0067
11972 opls_157 460 MF C2 13785 0.024672 12.011
11973 opls_154 460 MF O2 13786 0.0 15.9994
11974 opls_156 460 MF H021 13788 0.0 1.008
11975 opls_156 460 MF H022 13789 0.0 1.008
11976 opls_910 460 MF H31 13790 0.0 1.008
11977 A 460 MF A3 13791 0.0 72.06679999999997
11978 opls_902 460 MF N13 13792 -0.407483 14.0067
11979 opls_145 460 MF C13 13793 0.682492 12.011
11980 opls_901 460 MF N23 13794 -0.299758 14.0067
11981 opls_157 460 MF C3 13795 0.024689 12.011
11982 opls_156 460 MF H031 13798 0.0 1.008
11983 opls_156 460 MF H032 13799 0.0 1.008
11984 opls_910 460 MF H11 13800 0.0 1.008
11985 A 461 MF A1 13801 0.0 72.06679999999997
11986 opls_902 461 MF N11 13802 -0.407377 14.0067
11987 opls_145 461 MF C11 13803 0.682493 12.011
11988 opls_901 461 MF N21 13804 -0.299731 14.0067
11989 opls_157 461 MF C1 13805 0.024669 12.011
11990 opls_154 461 MF O1 13806 0.0 15.9994
11991 opls_155 461 MF H01 13807 0.0 1.008
11992 opls_156 461 MF H011 13808 0.0 1.008
11993 opls_156 461 MF H012 13809 0.0 1.008
11994 opls_910 461 MF H21 13810 0.0 1.008
11995 A 461 MF A2 13811 0.0 72.06679999999997
11996 opls_902 461 MF N12 13812 -0.407374 14.0067
11997 opls_145 461 MF C12 13813 0.682437 12.011
11998 opls_901 461 MF N22 13814 -0.299729 14.0067
11999 opls_157 461 MF C2 13815 0.024672 12.011
12000 opls_156 461 MF H021 13818 0.0 1.008
12001 opls_156 461 MF H022 13819 0.0 1.008
12002 opls_910 461 MF H31 13820 0.0 1.008
12003 A 461 MF A3 13821 0.0 72.06679999999997
12004 opls_902 461 MF N13 13822 -0.407483 14.0067
12005 opls_145 461 MF C13 13823 0.682492 12.011
12006 opls_901 461 MF N23 13824 -0.299758 14.0067
12007 opls_157 461 MF C3 13825 0.024689 12.011
12008 opls_154 461 MF O3 13826 0.0 15.9994
12009 opls_155 461 MF H03 13827 0.0 1.008
12010 opls_156 461 MF H031 13828 0.0 1.008
12011 opls_156 461 MF H032 13829 0.0 1.008
12012 opls_910 461 MF H11 13830 0.0 1.008
12013 A 462 MF A1 13831 0.0 72.06679999999997
12014 opls_902 462 MF N11 13832 -0.407377 14.0067
12015 opls_145 462 MF C11 13833 0.682493 12.011
12016 opls_901 462 MF N21 13834 -0.299731 14.0067
12017 opls_157 462 MF C1 13835 0.024669 12.011
12018 opls_156 462 MF H011 13838 0.0 1.008
12019 opls_156 462 MF H012 13839 0.0 1.008
12020 opls_910 462 MF H21 13840 0.0 1.008
12021 A 462 MF A2 13841 0.0 72.06679999999997
12022 opls_902 462 MF N12 13842 -0.407374 14.0067
12023 opls_145 462 MF C12 13843 0.682437 12.011
12024 opls_901 462 MF N22 13844 -0.299729 14.0067
12025 opls_157 462 MF C2 13845 0.024672 12.011
12026 opls_156 462 MF H021 13848 0.0 1.008
12027 opls_156 462 MF H022 13849 0.0 1.008
12028 opls_910 462 MF H31 13850 0.0 1.008
12029 A 462 MF A3 13851 0.0 72.06679999999997
12030 opls_902 462 MF N13 13852 -0.407483 14.0067
12031 opls_145 462 MF C13 13853 0.682492 12.011
12032 opls_901 462 MF N23 13854 -0.299758 14.0067
12033 opls_157 462 MF C3 13855 0.024689 12.011
12034 opls_156 462 MF H031 13858 0.0 1.008
12035 opls_156 462 MF H032 13859 0.0 1.008
12036 opls_910 462 MF H11 13860 0.0 1.008
12037 A 463 MF A1 13861 0.0 72.06679999999997
12038 opls_902 463 MF N11 13862 -0.407377 14.0067
12039 opls_145 463 MF C11 13863 0.682493 12.011
12040 opls_901 463 MF N21 13864 -0.299731 14.0067
12041 opls_157 463 MF C1 13865 0.024669 12.011
12042 opls_156 463 MF H011 13868 0.0 1.008
12043 opls_156 463 MF H012 13869 0.0 1.008
12044 opls_910 463 MF H21 13870 0.0 1.008
12045 A 463 MF A2 13871 0.0 72.06679999999997
12046 opls_902 463 MF N12 13872 -0.407374 14.0067
12047 opls_145 463 MF C12 13873 0.682437 12.011
12048 opls_901 463 MF N22 13874 -0.299729 14.0067
12049 opls_157 463 MF C2 13875 0.024672 12.011
12050 opls_156 463 MF H021 13878 0.0 1.008
12051 opls_156 463 MF H022 13879 0.0 1.008
12052 opls_910 463 MF H31 13880 0.0 1.008
12053 A 463 MF A3 13881 0.0 72.06679999999997
12054 opls_902 463 MF N13 13882 -0.407483 14.0067
12055 opls_145 463 MF C13 13883 0.682492 12.011
12056 opls_901 463 MF N23 13884 -0.299758 14.0067
12057 opls_157 463 MF C3 13885 0.024689 12.011
12058 opls_156 463 MF H031 13888 0.0 1.008
12059 opls_156 463 MF H032 13889 0.0 1.008
12060 opls_910 463 MF H11 13890 0.0 1.008
12061 A 464 MF A1 13891 0.0 72.06679999999997
12062 opls_902 464 MF N11 13892 -0.407377 14.0067
12063 opls_145 464 MF C11 13893 0.682493 12.011
12064 opls_901 464 MF N21 13894 -0.299731 14.0067
12065 opls_157 464 MF C1 13895 0.024669 12.011
12066 opls_154 464 MF O1 13896 0.0 15.9994
12067 opls_155 464 MF H01 13897 0.0 1.008
12068 opls_156 464 MF H011 13898 0.0 1.008
12069 opls_156 464 MF H012 13899 0.0 1.008
12070 opls_910 464 MF H21 13900 0.0 1.008
12071 A 464 MF A2 13901 0.0 72.06679999999997
12072 opls_902 464 MF N12 13902 -0.407374 14.0067
12073 opls_145 464 MF C12 13903 0.682437 12.011
12074 opls_901 464 MF N22 13904 -0.299729 14.0067
12075 opls_157 464 MF C2 13905 0.024672 12.011
12076 opls_156 464 MF H021 13908 0.0 1.008
12077 opls_156 464 MF H022 13909 0.0 1.008
12078 opls_910 464 MF H31 13910 0.0 1.008
12079 A 464 MF A3 13911 0.0 72.06679999999997
12080 opls_902 464 MF N13 13912 -0.407483 14.0067
12081 opls_145 464 MF C13 13913 0.682492 12.011
12082 opls_901 464 MF N23 13914 -0.299758 14.0067
12083 opls_157 464 MF C3 13915 0.024689 12.011
12084 opls_156 464 MF H031 13918 0.0 1.008
12085 opls_156 464 MF H032 13919 0.0 1.008
12086 opls_910 464 MF H11 13920 0.0 1.008
12087 A 465 MF A1 13921 0.0 72.06679999999997
12088 opls_902 465 MF N11 13922 -0.407377 14.0067
12089 opls_145 465 MF C11 13923 0.682493 12.011
12090 opls_901 465 MF N21 13924 -0.299731 14.0067
12091 opls_157 465 MF C1 13925 0.024669 12.011
12092 opls_156 465 MF H011 13928 0.0 1.008
12093 opls_156 465 MF H012 13929 0.0 1.008
12094 opls_910 465 MF H21 13930 0.0 1.008
12095 A 465 MF A2 13931 0.0 72.06679999999997
12096 opls_902 465 MF N12 13932 -0.407374 14.0067
12097 opls_145 465 MF C12 13933 0.682437 12.011
12098 opls_901 465 MF N22 13934 -0.299729 14.0067
12099 opls_157 465 MF C2 13935 0.024672 12.011
12100 opls_156 465 MF H021 13938 0.0 1.008
12101 opls_156 465 MF H022 13939 0.0 1.008
12102 opls_910 465 MF H31 13940 0.0 1.008
12103 A 465 MF A3 13941 0.0 72.06679999999997
12104 opls_902 465 MF N13 13942 -0.407483 14.0067
12105 opls_145 465 MF C13 13943 0.682492 12.011
12106 opls_901 465 MF N23 13944 -0.299758 14.0067
12107 opls_157 465 MF C3 13945 0.024689 12.011
12108 opls_156 465 MF H031 13948 0.0 1.008
12109 opls_156 465 MF H032 13949 0.0 1.008
12110 opls_910 465 MF H11 13950 0.0 1.008
12111 A 466 MF A1 13951 0.0 72.06679999999997
12112 opls_902 466 MF N11 13952 -0.407377 14.0067
12113 opls_145 466 MF C11 13953 0.682493 12.011
12114 opls_901 466 MF N21 13954 -0.299731 14.0067
12115 opls_157 466 MF C1 13955 0.024669 12.011
12116 opls_156 466 MF H011 13958 0.0 1.008
12117 opls_156 466 MF H012 13959 0.0 1.008
12118 opls_910 466 MF H21 13960 0.0 1.008
12119 A 466 MF A2 13961 0.0 72.06679999999997
12120 opls_902 466 MF N12 13962 -0.407374 14.0067
12121 opls_145 466 MF C12 13963 0.682437 12.011
12122 opls_901 466 MF N22 13964 -0.299729 14.0067
12123 opls_157 466 MF C2 13965 0.024672 12.011
12124 opls_156 466 MF H021 13968 0.0 1.008
12125 opls_156 466 MF H022 13969 0.0 1.008
12126 opls_910 466 MF H31 13970 0.0 1.008
12127 A 466 MF A3 13971 0.0 72.06679999999997
12128 opls_902 466 MF N13 13972 -0.407483 14.0067
12129 opls_145 466 MF C13 13973 0.682492 12.011
12130 opls_901 466 MF N23 13974 -0.299758 14.0067
12131 opls_157 466 MF C3 13975 0.024689 12.011
12132 opls_156 466 MF H031 13978 0.0 1.008
12133 opls_156 466 MF H032 13979 0.0 1.008
12134 opls_910 466 MF H11 13980 0.0 1.008
12135 A 467 MF A1 13981 0.0 72.06679999999997
12136 opls_902 467 MF N11 13982 -0.407377 14.0067
12137 opls_145 467 MF C11 13983 0.682493 12.011
12138 opls_901 467 MF N21 13984 -0.299731 14.0067
12139 opls_157 467 MF C1 13985 0.024669 12.011
12140 opls_156 467 MF H011 13988 0.0 1.008
12141 opls_156 467 MF H012 13989 0.0 1.008
12142 opls_910 467 MF H21 13990 0.0 1.008
12143 A 467 MF A2 13991 0.0 72.06679999999997
12144 opls_902 467 MF N12 13992 -0.407374 14.0067
12145 opls_145 467 MF C12 13993 0.682437 12.011
12146 opls_901 467 MF N22 13994 -0.299729 14.0067
12147 opls_157 467 MF C2 13995 0.024672 12.011
12148 opls_156 467 MF H021 13998 0.0 1.008
12149 opls_156 467 MF H022 13999 0.0 1.008
12150 opls_910 467 MF H31 14000 0.0 1.008
12151 A 467 MF A3 14001 0.0 72.06679999999997
12152 opls_902 467 MF N13 14002 -0.407483 14.0067
12153 opls_145 467 MF C13 14003 0.682492 12.011
12154 opls_901 467 MF N23 14004 -0.299758 14.0067
12155 opls_157 467 MF C3 14005 0.024689 12.011
12156 opls_156 467 MF H031 14008 0.0 1.008
12157 opls_156 467 MF H032 14009 0.0 1.008
12158 opls_910 467 MF H11 14010 0.0 1.008
12159 A 468 MF A1 14011 0.0 72.06679999999997
12160 opls_902 468 MF N11 14012 -0.407377 14.0067
12161 opls_145 468 MF C11 14013 0.682493 12.011
12162 opls_901 468 MF N21 14014 -0.299731 14.0067
12163 opls_157 468 MF C1 14015 0.024669 12.011
12164 opls_156 468 MF H011 14018 0.0 1.008
12165 opls_156 468 MF H012 14019 0.0 1.008
12166 opls_910 468 MF H21 14020 0.0 1.008
12167 A 468 MF A2 14021 0.0 72.06679999999997
12168 opls_902 468 MF N12 14022 -0.407374 14.0067
12169 opls_145 468 MF C12 14023 0.682437 12.011
12170 opls_901 468 MF N22 14024 -0.299729 14.0067
12171 opls_157 468 MF C2 14025 0.024672 12.011
12172 opls_156 468 MF H021 14028 0.0 1.008
12173 opls_156 468 MF H022 14029 0.0 1.008
12174 opls_910 468 MF H31 14030 0.0 1.008
12175 A 468 MF A3 14031 0.0 72.06679999999997
12176 opls_902 468 MF N13 14032 -0.407483 14.0067
12177 opls_145 468 MF C13 14033 0.682492 12.011
12178 opls_901 468 MF N23 14034 -0.299758 14.0067
12179 opls_157 468 MF C3 14035 0.024689 12.011
12180 opls_156 468 MF H031 14038 0.0 1.008
12181 opls_156 468 MF H032 14039 0.0 1.008
12182 opls_910 468 MF H11 14040 0.0 1.008
12183 A 469 MF A1 14041 0.0 72.06679999999997
12184 opls_902 469 MF N11 14042 -0.407377 14.0067
12185 opls_145 469 MF C11 14043 0.682493 12.011
12186 opls_901 469 MF N21 14044 -0.299731 14.0067
12187 opls_157 469 MF C1 14045 0.024669 12.011
12188 opls_154 469 MF O1 14046 0.0 15.9994
12189 opls_155 469 MF H01 14047 0.0 1.008
12190 opls_156 469 MF H011 14048 0.0 1.008
12191 opls_156 469 MF H012 14049 0.0 1.008
12192 opls_910 469 MF H21 14050 0.0 1.008
12193 A 469 MF A2 14051 0.0 72.06679999999997
12194 opls_902 469 MF N12 14052 -0.407374 14.0067
12195 opls_145 469 MF C12 14053 0.682437 12.011
12196 opls_901 469 MF N22 14054 -0.299729 14.0067
12197 opls_157 469 MF C2 14055 0.024672 12.011
12198 opls_154 469 MF O2 14056 0.0 15.9994
12199 opls_156 469 MF H021 14058 0.0 1.008
12200 opls_156 469 MF H022 14059 0.0 1.008
12201 opls_910 469 MF H31 14060 0.0 1.008
12202 A 469 MF A3 14061 0.0 72.06679999999997
12203 opls_902 469 MF N13 14062 -0.407483 14.0067
12204 opls_145 469 MF C13 14063 0.682492 12.011
12205 opls_901 469 MF N23 14064 -0.299758 14.0067
12206 opls_157 469 MF C3 14065 0.024689 12.011
12207 opls_154 469 MF O3 14066 0.0 15.9994
12208 opls_155 469 MF H03 14067 0.0 1.008
12209 opls_156 469 MF H031 14068 0.0 1.008
12210 opls_156 469 MF H032 14069 0.0 1.008
12211 opls_910 469 MF H11 14070 0.0 1.008
12212 A 470 MF A1 14071 0.0 72.06679999999997
12213 opls_902 470 MF N11 14072 -0.407377 14.0067
12214 opls_145 470 MF C11 14073 0.682493 12.011
12215 opls_901 470 MF N21 14074 -0.299731 14.0067
12216 opls_157 470 MF C1 14075 0.024669 12.011
12217 opls_156 470 MF H011 14078 0.0 1.008
12218 opls_156 470 MF H012 14079 0.0 1.008
12219 opls_910 470 MF H21 14080 0.0 1.008
12220 A 470 MF A2 14081 0.0 72.06679999999997
12221 opls_902 470 MF N12 14082 -0.407374 14.0067
12222 opls_145 470 MF C12 14083 0.682437 12.011
12223 opls_901 470 MF N22 14084 -0.299729 14.0067
12224 opls_157 470 MF C2 14085 0.024672 12.011
12225 opls_156 470 MF H021 14088 0.0 1.008
12226 opls_156 470 MF H022 14089 0.0 1.008
12227 opls_910 470 MF H31 14090 0.0 1.008
12228 A 470 MF A3 14091 0.0 72.06679999999997
12229 opls_902 470 MF N13 14092 -0.407483 14.0067
12230 opls_145 470 MF C13 14093 0.682492 12.011
12231 opls_901 470 MF N23 14094 -0.299758 14.0067
12232 opls_157 470 MF C3 14095 0.024689 12.011
12233 opls_156 470 MF H031 14098 0.0 1.008
12234 opls_156 470 MF H032 14099 0.0 1.008
12235 opls_910 470 MF H11 14100 0.0 1.008
12236 A 471 MF A1 14101 0.0 72.06679999999997
12237 opls_902 471 MF N11 14102 -0.407377 14.0067
12238 opls_145 471 MF C11 14103 0.682493 12.011
12239 opls_901 471 MF N21 14104 -0.299731 14.0067
12240 opls_157 471 MF C1 14105 0.024669 12.011
12241 opls_154 471 MF O1 14106 0.0 15.9994
12242 opls_155 471 MF H01 14107 0.0 1.008
12243 opls_156 471 MF H011 14108 0.0 1.008
12244 opls_156 471 MF H012 14109 0.0 1.008
12245 opls_910 471 MF H21 14110 0.0 1.008
12246 A 471 MF A2 14111 0.0 72.06679999999997
12247 opls_902 471 MF N12 14112 -0.407374 14.0067
12248 opls_145 471 MF C12 14113 0.682437 12.011
12249 opls_901 471 MF N22 14114 -0.299729 14.0067
12250 opls_157 471 MF C2 14115 0.024672 12.011
12251 opls_156 471 MF H021 14118 0.0 1.008
12252 opls_156 471 MF H022 14119 0.0 1.008
12253 opls_910 471 MF H31 14120 0.0 1.008
12254 A 471 MF A3 14121 0.0 72.06679999999997
12255 opls_902 471 MF N13 14122 -0.407483 14.0067
12256 opls_145 471 MF C13 14123 0.682492 12.011
12257 opls_901 471 MF N23 14124 -0.299758 14.0067
12258 opls_157 471 MF C3 14125 0.024689 12.011
12259 opls_156 471 MF H031 14128 0.0 1.008
12260 opls_156 471 MF H032 14129 0.0 1.008
12261 opls_910 471 MF H11 14130 0.0 1.008
12262 A 472 MF A1 14131 0.0 72.06679999999997
12263 opls_902 472 MF N11 14132 -0.407377 14.0067
12264 opls_145 472 MF C11 14133 0.682493 12.011
12265 opls_901 472 MF N21 14134 -0.299731 14.0067
12266 opls_157 472 MF C1 14135 0.024669 12.011
12267 opls_156 472 MF H011 14138 0.0 1.008
12268 opls_156 472 MF H012 14139 0.0 1.008
12269 opls_910 472 MF H21 14140 0.0 1.008
12270 A 472 MF A2 14141 0.0 72.06679999999997
12271 opls_902 472 MF N12 14142 -0.407374 14.0067
12272 opls_145 472 MF C12 14143 0.682437 12.011
12273 opls_901 472 MF N22 14144 -0.299729 14.0067
12274 opls_157 472 MF C2 14145 0.024672 12.011
12275 opls_156 472 MF H021 14148 0.0 1.008
12276 opls_156 472 MF H022 14149 0.0 1.008
12277 opls_910 472 MF H31 14150 0.0 1.008
12278 A 472 MF A3 14151 0.0 72.06679999999997
12279 opls_902 472 MF N13 14152 -0.407483 14.0067
12280 opls_145 472 MF C13 14153 0.682492 12.011
12281 opls_901 472 MF N23 14154 -0.299758 14.0067
12282 opls_157 472 MF C3 14155 0.024689 12.011
12283 opls_156 472 MF H031 14158 0.0 1.008
12284 opls_156 472 MF H032 14159 0.0 1.008
12285 opls_910 472 MF H11 14160 0.0 1.008
12286 A 473 MF A1 14161 0.0 72.06679999999997
12287 opls_902 473 MF N11 14162 -0.407377 14.0067
12288 opls_145 473 MF C11 14163 0.682493 12.011
12289 opls_901 473 MF N21 14164 -0.299731 14.0067
12290 opls_157 473 MF C1 14165 0.024669 12.011
12291 opls_156 473 MF H011 14168 0.0 1.008
12292 opls_156 473 MF H012 14169 0.0 1.008
12293 opls_910 473 MF H21 14170 0.0 1.008
12294 A 473 MF A2 14171 0.0 72.06679999999997
12295 opls_902 473 MF N12 14172 -0.407374 14.0067
12296 opls_145 473 MF C12 14173 0.682437 12.011
12297 opls_901 473 MF N22 14174 -0.299729 14.0067
12298 opls_157 473 MF C2 14175 0.024672 12.011
12299 opls_156 473 MF H021 14178 0.0 1.008
12300 opls_156 473 MF H022 14179 0.0 1.008
12301 opls_910 473 MF H31 14180 0.0 1.008
12302 A 473 MF A3 14181 0.0 72.06679999999997
12303 opls_902 473 MF N13 14182 -0.407483 14.0067
12304 opls_145 473 MF C13 14183 0.682492 12.011
12305 opls_901 473 MF N23 14184 -0.299758 14.0067
12306 opls_157 473 MF C3 14185 0.024689 12.011
12307 opls_156 473 MF H031 14188 0.0 1.008
12308 opls_156 473 MF H032 14189 0.0 1.008
12309 opls_910 473 MF H11 14190 0.0 1.008
12310 A 474 MF A1 14191 0.0 72.06679999999997
12311 opls_902 474 MF N11 14192 -0.407377 14.0067
12312 opls_145 474 MF C11 14193 0.682493 12.011
12313 opls_901 474 MF N21 14194 -0.299731 14.0067
12314 opls_157 474 MF C1 14195 0.024669 12.011
12315 opls_156 474 MF H011 14198 0.0 1.008
12316 opls_156 474 MF H012 14199 0.0 1.008
12317 opls_910 474 MF H21 14200 0.0 1.008
12318 A 474 MF A2 14201 0.0 72.06679999999997
12319 opls_902 474 MF N12 14202 -0.407374 14.0067
12320 opls_145 474 MF C12 14203 0.682437 12.011
12321 opls_901 474 MF N22 14204 -0.299729 14.0067
12322 opls_157 474 MF C2 14205 0.024672 12.011
12323 opls_156 474 MF H021 14208 0.0 1.008
12324 opls_156 474 MF H022 14209 0.0 1.008
12325 opls_910 474 MF H31 14210 0.0 1.008
12326 A 474 MF A3 14211 0.0 72.06679999999997
12327 opls_902 474 MF N13 14212 -0.407483 14.0067
12328 opls_145 474 MF C13 14213 0.682492 12.011
12329 opls_901 474 MF N23 14214 -0.299758 14.0067
12330 opls_157 474 MF C3 14215 0.024689 12.011
12331 opls_156 474 MF H031 14218 0.0 1.008
12332 opls_156 474 MF H032 14219 0.0 1.008
12333 opls_910 474 MF H11 14220 0.0 1.008
12334 A 475 MF A1 14221 0.0 72.06679999999997
12335 opls_902 475 MF N11 14222 -0.407377 14.0067
12336 opls_145 475 MF C11 14223 0.682493 12.011
12337 opls_901 475 MF N21 14224 -0.299731 14.0067
12338 opls_157 475 MF C1 14225 0.024669 12.011
12339 opls_156 475 MF H011 14228 0.0 1.008
12340 opls_156 475 MF H012 14229 0.0 1.008
12341 opls_910 475 MF H21 14230 0.0 1.008
12342 A 475 MF A2 14231 0.0 72.06679999999997
12343 opls_902 475 MF N12 14232 -0.407374 14.0067
12344 opls_145 475 MF C12 14233 0.682437 12.011
12345 opls_901 475 MF N22 14234 -0.299729 14.0067
12346 opls_157 475 MF C2 14235 0.024672 12.011
12347 opls_156 475 MF H021 14238 0.0 1.008
12348 opls_156 475 MF H022 14239 0.0 1.008
12349 opls_910 475 MF H31 14240 0.0 1.008
12350 A 475 MF A3 14241 0.0 72.06679999999997
12351 opls_902 475 MF N13 14242 -0.407483 14.0067
12352 opls_145 475 MF C13 14243 0.682492 12.011
12353 opls_901 475 MF N23 14244 -0.299758 14.0067
12354 opls_157 475 MF C3 14245 0.024689 12.011
12355 opls_156 475 MF H031 14248 0.0 1.008
12356 opls_156 475 MF H032 14249 0.0 1.008
12357 opls_910 475 MF H11 14250 0.0 1.008
12358 A 476 MF A1 14251 0.0 72.06679999999997
12359 opls_902 476 MF N11 14252 -0.407377 14.0067
12360 opls_145 476 MF C11 14253 0.682493 12.011
12361 opls_901 476 MF N21 14254 -0.299731 14.0067
12362 opls_157 476 MF C1 14255 0.024669 12.011
12363 opls_156 476 MF H011 14258 0.0 1.008
12364 opls_156 476 MF H012 14259 0.0 1.008
12365 opls_910 476 MF H21 14260 0.0 1.008
12366 A 476 MF A2 14261 0.0 72.06679999999997
12367 opls_902 476 MF N12 14262 -0.407374 14.0067
12368 opls_145 476 MF C12 14263 0.682437 12.011
12369 opls_901 476 MF N22 14264 -0.299729 14.0067
12370 opls_157 476 MF C2 14265 0.024672 12.011
12371 opls_156 476 MF H021 14268 0.0 1.008
12372 opls_156 476 MF H022 14269 0.0 1.008
12373 opls_910 476 MF H31 14270 0.0 1.008
12374 A 476 MF A3 14271 0.0 72.06679999999997
12375 opls_902 476 MF N13 14272 -0.407483 14.0067
12376 opls_145 476 MF C13 14273 0.682492 12.011
12377 opls_901 476 MF N23 14274 -0.299758 14.0067
12378 opls_157 476 MF C3 14275 0.024689 12.011
12379 opls_156 476 MF H031 14278 0.0 1.008
12380 opls_156 476 MF H032 14279 0.0 1.008
12381 opls_910 476 MF H11 14280 0.0 1.008
12382 A 477 MF A1 14281 0.0 72.06679999999997
12383 opls_902 477 MF N11 14282 -0.407377 14.0067
12384 opls_145 477 MF C11 14283 0.682493 12.011
12385 opls_901 477 MF N21 14284 -0.299731 14.0067
12386 opls_157 477 MF C1 14285 0.024669 12.011
12387 opls_156 477 MF H011 14288 0.0 1.008
12388 opls_156 477 MF H012 14289 0.0 1.008
12389 opls_910 477 MF H21 14290 0.0 1.008
12390 A 477 MF A2 14291 0.0 72.06679999999997
12391 opls_902 477 MF N12 14292 -0.407374 14.0067
12392 opls_145 477 MF C12 14293 0.682437 12.011
12393 opls_901 477 MF N22 14294 -0.299729 14.0067
12394 opls_157 477 MF C2 14295 0.024672 12.011
12395 opls_156 477 MF H021 14298 0.0 1.008
12396 opls_156 477 MF H022 14299 0.0 1.008
12397 opls_910 477 MF H31 14300 0.0 1.008
12398 A 477 MF A3 14301 0.0 72.06679999999997
12399 opls_902 477 MF N13 14302 -0.407483 14.0067
12400 opls_145 477 MF C13 14303 0.682492 12.011
12401 opls_901 477 MF N23 14304 -0.299758 14.0067
12402 opls_157 477 MF C3 14305 0.024689 12.011
12403 opls_156 477 MF H031 14308 0.0 1.008
12404 opls_156 477 MF H032 14309 0.0 1.008
12405 opls_910 477 MF H11 14310 0.0 1.008
12406 A 478 MF A1 14311 0.0 72.06679999999997
12407 opls_902 478 MF N11 14312 -0.407377 14.0067
12408 opls_145 478 MF C11 14313 0.682493 12.011
12409 opls_901 478 MF N21 14314 -0.299731 14.0067
12410 opls_157 478 MF C1 14315 0.024669 12.011
12411 opls_156 478 MF H011 14318 0.0 1.008
12412 opls_156 478 MF H012 14319 0.0 1.008
12413 opls_910 478 MF H21 14320 0.0 1.008
12414 A 478 MF A2 14321 0.0 72.06679999999997
12415 opls_902 478 MF N12 14322 -0.407374 14.0067
12416 opls_145 478 MF C12 14323 0.682437 12.011
12417 opls_901 478 MF N22 14324 -0.299729 14.0067
12418 opls_157 478 MF C2 14325 0.024672 12.011
12419 opls_154 478 MF O2 14326 0.0 15.9994
12420 opls_155 478 MF H02 14327 0.0 1.008
12421 opls_156 478 MF H021 14328 0.0 1.008
12422 opls_156 478 MF H022 14329 0.0 1.008
12423 opls_910 478 MF H31 14330 0.0 1.008
12424 A 478 MF A3 14331 0.0 72.06679999999997
12425 opls_902 478 MF N13 14332 -0.407483 14.0067
12426 opls_145 478 MF C13 14333 0.682492 12.011
12427 opls_901 478 MF N23 14334 -0.299758 14.0067
12428 opls_157 478 MF C3 14335 0.024689 12.011
12429 opls_156 478 MF H031 14338 0.0 1.008
12430 opls_156 478 MF H032 14339 0.0 1.008
12431 opls_910 478 MF H11 14340 0.0 1.008
12432 A 479 MF A1 14341 0.0 72.06679999999997
12433 opls_902 479 MF N11 14342 -0.407377 14.0067
12434 opls_145 479 MF C11 14343 0.682493 12.011
12435 opls_901 479 MF N21 14344 -0.299731 14.0067
12436 opls_157 479 MF C1 14345 0.024669 12.011
12437 opls_156 479 MF H011 14348 0.0 1.008
12438 opls_156 479 MF H012 14349 0.0 1.008
12439 opls_910 479 MF H21 14350 0.0 1.008
12440 A 479 MF A2 14351 0.0 72.06679999999997
12441 opls_902 479 MF N12 14352 -0.407374 14.0067
12442 opls_145 479 MF C12 14353 0.682437 12.011
12443 opls_901 479 MF N22 14354 -0.299729 14.0067
12444 opls_157 479 MF C2 14355 0.024672 12.011
12445 opls_156 479 MF H021 14358 0.0 1.008
12446 opls_156 479 MF H022 14359 0.0 1.008
12447 opls_910 479 MF H31 14360 0.0 1.008
12448 A 479 MF A3 14361 0.0 72.06679999999997
12449 opls_902 479 MF N13 14362 -0.407483 14.0067
12450 opls_145 479 MF C13 14363 0.682492 12.011
12451 opls_901 479 MF N23 14364 -0.299758 14.0067
12452 opls_157 479 MF C3 14365 0.024689 12.011
12453 opls_156 479 MF H031 14368 0.0 1.008
12454 opls_156 479 MF H032 14369 0.0 1.008
12455 opls_910 479 MF H11 14370 0.0 1.008
12456 A 480 MF A1 14371 0.0 72.06679999999997
12457 opls_902 480 MF N11 14372 -0.407377 14.0067
12458 opls_145 480 MF C11 14373 0.682493 12.011
12459 opls_901 480 MF N21 14374 -0.299731 14.0067
12460 opls_157 480 MF C1 14375 0.024669 12.011
12461 opls_156 480 MF H011 14378 0.0 1.008
12462 opls_156 480 MF H012 14379 0.0 1.008
12463 opls_910 480 MF H21 14380 0.0 1.008
12464 A 480 MF A2 14381 0.0 72.06679999999997
12465 opls_902 480 MF N12 14382 -0.407374 14.0067
12466 opls_145 480 MF C12 14383 0.682437 12.011
12467 opls_901 480 MF N22 14384 -0.299729 14.0067
12468 opls_157 480 MF C2 14385 0.024672 12.011
12469 opls_156 480 MF H021 14388 0.0 1.008
12470 opls_156 480 MF H022 14389 0.0 1.008
12471 opls_910 480 MF H31 14390 0.0 1.008
12472 A 480 MF A3 14391 0.0 72.06679999999997
12473 opls_902 480 MF N13 14392 -0.407483 14.0067
12474 opls_145 480 MF C13 14393 0.682492 12.011
12475 opls_901 480 MF N23 14394 -0.299758 14.0067
12476 opls_157 480 MF C3 14395 0.024689 12.011
12477 opls_156 480 MF H031 14398 0.0 1.008
12478 opls_156 480 MF H032 14399 0.0 1.008
12479 opls_910 480 MF H11 14400 0.0 1.008
12480 A 481 MF A1 14401 0.0 72.06679999999997
12481 opls_902 481 MF N11 14402 -0.407377 14.0067
12482 opls_145 481 MF C11 14403 0.682493 12.011
12483 opls_901 481 MF N21 14404 -0.299731 14.0067
12484 opls_157 481 MF C1 14405 0.024669 12.011
12485 opls_156 481 MF H011 14408 0.0 1.008
12486 opls_156 481 MF H012 14409 0.0 1.008
12487 opls_910 481 MF H21 14410 0.0 1.008
12488 A 481 MF A2 14411 0.0 72.06679999999997
12489 opls_902 481 MF N12 14412 -0.407374 14.0067
12490 opls_145 481 MF C12 14413 0.682437 12.011
12491 opls_901 481 MF N22 14414 -0.299729 14.0067
12492 opls_157 481 MF C2 14415 0.024672 12.011
12493 opls_154 481 MF O2 14416 0.0 15.9994
12494 opls_155 481 MF H02 14417 0.0 1.008
12495 opls_156 481 MF H021 14418 0.0 1.008
12496 opls_156 481 MF H022 14419 0.0 1.008
12497 opls_910 481 MF H31 14420 0.0 1.008
12498 A 481 MF A3 14421 0.0 72.06679999999997
12499 opls_902 481 MF N13 14422 -0.407483 14.0067
12500 opls_145 481 MF C13 14423 0.682492 12.011
12501 opls_901 481 MF N23 14424 -0.299758 14.0067
12502 opls_157 481 MF C3 14425 0.024689 12.011
12503 opls_156 481 MF H031 14428 0.0 1.008
12504 opls_156 481 MF H032 14429 0.0 1.008
12505 opls_910 481 MF H11 14430 0.0 1.008
12506 A 482 MF A1 14431 0.0 72.06679999999997
12507 opls_902 482 MF N11 14432 -0.407377 14.0067
12508 opls_145 482 MF C11 14433 0.682493 12.011
12509 opls_901 482 MF N21 14434 -0.299731 14.0067
12510 opls_157 482 MF C1 14435 0.024669 12.011
12511 opls_156 482 MF H011 14438 0.0 1.008
12512 opls_156 482 MF H012 14439 0.0 1.008
12513 opls_910 482 MF H21 14440 0.0 1.008
12514 A 482 MF A2 14441 0.0 72.06679999999997
12515 opls_902 482 MF N12 14442 -0.407374 14.0067
12516 opls_145 482 MF C12 14443 0.682437 12.011
12517 opls_901 482 MF N22 14444 -0.299729 14.0067
12518 opls_157 482 MF C2 14445 0.024672 12.011
12519 opls_154 482 MF O2 14446 0.0 15.9994
12520 opls_155 482 MF H02 14447 0.0 1.008
12521 opls_156 482 MF H021 14448 0.0 1.008
12522 opls_156 482 MF H022 14449 0.0 1.008
12523 opls_910 482 MF H31 14450 0.0 1.008
12524 A 482 MF A3 14451 0.0 72.06679999999997
12525 opls_902 482 MF N13 14452 -0.407483 14.0067
12526 opls_145 482 MF C13 14453 0.682492 12.011
12527 opls_901 482 MF N23 14454 -0.299758 14.0067
12528 opls_157 482 MF C3 14455 0.024689 12.011
12529 opls_156 482 MF H031 14458 0.0 1.008
12530 opls_156 482 MF H032 14459 0.0 1.008
12531 opls_910 482 MF H11 14460 0.0 1.008
12532 A 483 MF A1 14461 0.0 72.06679999999997
12533 opls_902 483 MF N11 14462 -0.407377 14.0067
12534 opls_145 483 MF C11 14463 0.682493 12.011
12535 opls_901 483 MF N21 14464 -0.299731 14.0067
12536 opls_157 483 MF C1 14465 0.024669 12.011
12537 opls_156 483 MF H011 14468 0.0 1.008
12538 opls_156 483 MF H012 14469 0.0 1.008
12539 opls_910 483 MF H21 14470 0.0 1.008
12540 A 483 MF A2 14471 0.0 72.06679999999997
12541 opls_902 483 MF N12 14472 -0.407374 14.0067
12542 opls_145 483 MF C12 14473 0.682437 12.011
12543 opls_901 483 MF N22 14474 -0.299729 14.0067
12544 opls_157 483 MF C2 14475 0.024672 12.011
12545 opls_156 483 MF H021 14478 0.0 1.008
12546 opls_156 483 MF H022 14479 0.0 1.008
12547 opls_910 483 MF H31 14480 0.0 1.008
12548 A 483 MF A3 14481 0.0 72.06679999999997
12549 opls_902 483 MF N13 14482 -0.407483 14.0067
12550 opls_145 483 MF C13 14483 0.682492 12.011
12551 opls_901 483 MF N23 14484 -0.299758 14.0067
12552 opls_157 483 MF C3 14485 0.024689 12.011
12553 opls_154 483 MF O3 14486 0.0 15.9994
12554 opls_155 483 MF H03 14487 0.0 1.008
12555 opls_156 483 MF H031 14488 0.0 1.008
12556 opls_156 483 MF H032 14489 0.0 1.008
12557 opls_910 483 MF H11 14490 0.0 1.008
12558 A 484 MF A1 14491 0.0 72.06679999999997
12559 opls_902 484 MF N11 14492 -0.407377 14.0067
12560 opls_145 484 MF C11 14493 0.682493 12.011
12561 opls_901 484 MF N21 14494 -0.299731 14.0067
12562 opls_157 484 MF C1 14495 0.024669 12.011
12563 opls_156 484 MF H011 14498 0.0 1.008
12564 opls_156 484 MF H012 14499 0.0 1.008
12565 opls_910 484 MF H21 14500 0.0 1.008
12566 A 484 MF A2 14501 0.0 72.06679999999997
12567 opls_902 484 MF N12 14502 -0.407374 14.0067
12568 opls_145 484 MF C12 14503 0.682437 12.011
12569 opls_901 484 MF N22 14504 -0.299729 14.0067
12570 opls_157 484 MF C2 14505 0.024672 12.011
12571 opls_156 484 MF H021 14508 0.0 1.008
12572 opls_156 484 MF H022 14509 0.0 1.008
12573 opls_910 484 MF H31 14510 0.0 1.008
12574 A 484 MF A3 14511 0.0 72.06679999999997
12575 opls_902 484 MF N13 14512 -0.407483 14.0067
12576 opls_145 484 MF C13 14513 0.682492 12.011
12577 opls_901 484 MF N23 14514 -0.299758 14.0067
12578 opls_157 484 MF C3 14515 0.024689 12.011
12579 opls_156 484 MF H031 14518 0.0 1.008
12580 opls_156 484 MF H032 14519 0.0 1.008
12581 opls_910 484 MF H11 14520 0.0 1.008
12582 A 485 MF A1 14521 0.0 72.06679999999997
12583 opls_902 485 MF N11 14522 -0.407377 14.0067
12584 opls_145 485 MF C11 14523 0.682493 12.011
12585 opls_901 485 MF N21 14524 -0.299731 14.0067
12586 opls_157 485 MF C1 14525 0.024669 12.011
12587 opls_156 485 MF H011 14528 0.0 1.008
12588 opls_156 485 MF H012 14529 0.0 1.008
12589 opls_910 485 MF H21 14530 0.0 1.008
12590 A 485 MF A2 14531 0.0 72.06679999999997
12591 opls_902 485 MF N12 14532 -0.407374 14.0067
12592 opls_145 485 MF C12 14533 0.682437 12.011
12593 opls_901 485 MF N22 14534 -0.299729 14.0067
12594 opls_157 485 MF C2 14535 0.024672 12.011
12595 opls_156 485 MF H021 14538 0.0 1.008
12596 opls_156 485 MF H022 14539 0.0 1.008
12597 opls_910 485 MF H31 14540 0.0 1.008
12598 A 485 MF A3 14541 0.0 72.06679999999997
12599 opls_902 485 MF N13 14542 -0.407483 14.0067
12600 opls_145 485 MF C13 14543 0.682492 12.011
12601 opls_901 485 MF N23 14544 -0.299758 14.0067
12602 opls_157 485 MF C3 14545 0.024689 12.011
12603 opls_156 485 MF H031 14548 0.0 1.008
12604 opls_156 485 MF H032 14549 0.0 1.008
12605 opls_910 485 MF H11 14550 0.0 1.008
12606 A 486 MF A1 14551 0.0 72.06679999999997
12607 opls_902 486 MF N11 14552 -0.407377 14.0067
12608 opls_145 486 MF C11 14553 0.682493 12.011
12609 opls_901 486 MF N21 14554 -0.299731 14.0067
12610 opls_157 486 MF C1 14555 0.024669 12.011
12611 opls_156 486 MF H011 14558 0.0 1.008
12612 opls_156 486 MF H012 14559 0.0 1.008
12613 opls_910 486 MF H21 14560 0.0 1.008
12614 A 486 MF A2 14561 0.0 72.06679999999997
12615 opls_902 486 MF N12 14562 -0.407374 14.0067
12616 opls_145 486 MF C12 14563 0.682437 12.011
12617 opls_901 486 MF N22 14564 -0.299729 14.0067
12618 opls_157 486 MF C2 14565 0.024672 12.011
12619 opls_156 486 MF H021 14568 0.0 1.008
12620 opls_156 486 MF H022 14569 0.0 1.008
12621 opls_910 486 MF H31 14570 0.0 1.008
12622 A 486 MF A3 14571 0.0 72.06679999999997
12623 opls_902 486 MF N13 14572 -0.407483 14.0067
12624 opls_145 486 MF C13 14573 0.682492 12.011
12625 opls_901 486 MF N23 14574 -0.299758 14.0067
12626 opls_157 486 MF C3 14575 0.024689 12.011
12627 opls_156 486 MF H031 14578 0.0 1.008
12628 opls_156 486 MF H032 14579 0.0 1.008
12629 opls_910 486 MF H11 14580 0.0 1.008
12630 A 487 MF A1 14581 0.0 72.06679999999997
12631 opls_902 487 MF N11 14582 -0.407377 14.0067
12632 opls_145 487 MF C11 14583 0.682493 12.011
12633 opls_901 487 MF N21 14584 -0.299731 14.0067
12634 opls_157 487 MF C1 14585 0.024669 12.011
12635 opls_156 487 MF H011 14588 0.0 1.008
12636 opls_156 487 MF H012 14589 0.0 1.008
12637 opls_910 487 MF H21 14590 0.0 1.008
12638 A 487 MF A2 14591 0.0 72.06679999999997
12639 opls_902 487 MF N12 14592 -0.407374 14.0067
12640 opls_145 487 MF C12 14593 0.682437 12.011
12641 opls_901 487 MF N22 14594 -0.299729 14.0067
12642 opls_157 487 MF C2 14595 0.024672 12.011
12643 opls_156 487 MF H021 14598 0.0 1.008
12644 opls_156 487 MF H022 14599 0.0 1.008
12645 opls_910 487 MF H31 14600 0.0 1.008
12646 A 487 MF A3 14601 0.0 72.06679999999997
12647 opls_902 487 MF N13 14602 -0.407483 14.0067
12648 opls_145 487 MF C13 14603 0.682492 12.011
12649 opls_901 487 MF N23 14604 -0.299758 14.0067
12650 opls_157 487 MF C3 14605 0.024689 12.011
12651 opls_156 487 MF H031 14608 0.0 1.008
12652 opls_156 487 MF H032 14609 0.0 1.008
12653 opls_910 487 MF H11 14610 0.0 1.008
12654 A 488 MF A1 14611 0.0 72.06679999999997
12655 opls_902 488 MF N11 14612 -0.407377 14.0067
12656 opls_145 488 MF C11 14613 0.682493 12.011
12657 opls_901 488 MF N21 14614 -0.299731 14.0067
12658 opls_157 488 MF C1 14615 0.024669 12.011
12659 opls_156 488 MF H011 14618 0.0 1.008
12660 opls_156 488 MF H012 14619 0.0 1.008
12661 opls_910 488 MF H21 14620 0.0 1.008
12662 A 488 MF A2 14621 0.0 72.06679999999997
12663 opls_902 488 MF N12 14622 -0.407374 14.0067
12664 opls_145 488 MF C12 14623 0.682437 12.011
12665 opls_901 488 MF N22 14624 -0.299729 14.0067
12666 opls_157 488 MF C2 14625 0.024672 12.011
12667 opls_156 488 MF H021 14628 0.0 1.008
12668 opls_156 488 MF H022 14629 0.0 1.008
12669 opls_910 488 MF H31 14630 0.0 1.008
12670 A 488 MF A3 14631 0.0 72.06679999999997
12671 opls_902 488 MF N13 14632 -0.407483 14.0067
12672 opls_145 488 MF C13 14633 0.682492 12.011
12673 opls_901 488 MF N23 14634 -0.299758 14.0067
12674 opls_157 488 MF C3 14635 0.024689 12.011
12675 opls_154 488 MF O3 14636 0.0 15.9994
12676 opls_155 488 MF H03 14637 0.0 1.008
12677 opls_156 488 MF H031 14638 0.0 1.008
12678 opls_156 488 MF H032 14639 0.0 1.008
12679 opls_910 488 MF H11 14640 0.0 1.008
12680 A 489 MF A1 14641 0.0 72.06679999999997
12681 opls_902 489 MF N11 14642 -0.407377 14.0067
12682 opls_145 489 MF C11 14643 0.682493 12.011
12683 opls_901 489 MF N21 14644 -0.299731 14.0067
12684 opls_157 489 MF C1 14645 0.024669 12.011
12685 opls_156 489 MF H011 14648 0.0 1.008
12686 opls_156 489 MF H012 14649 0.0 1.008
12687 opls_910 489 MF H21 14650 0.0 1.008
12688 A 489 MF A2 14651 0.0 72.06679999999997
12689 opls_902 489 MF N12 14652 -0.407374 14.0067
12690 opls_145 489 MF C12 14653 0.682437 12.011
12691 opls_901 489 MF N22 14654 -0.299729 14.0067
12692 opls_157 489 MF C2 14655 0.024672 12.011
12693 opls_156 489 MF H021 14658 0.0 1.008
12694 opls_156 489 MF H022 14659 0.0 1.008
12695 opls_910 489 MF H31 14660 0.0 1.008
12696 A 489 MF A3 14661 0.0 72.06679999999997
12697 opls_902 489 MF N13 14662 -0.407483 14.0067
12698 opls_145 489 MF C13 14663 0.682492 12.011
12699 opls_901 489 MF N23 14664 -0.299758 14.0067
12700 opls_157 489 MF C3 14665 0.024689 12.011
12701 opls_156 489 MF H031 14668 0.0 1.008
12702 opls_156 489 MF H032 14669 0.0 1.008
12703 opls_910 489 MF H11 14670 0.0 1.008
12704 A 490 MF A1 14671 0.0 72.06679999999997
12705 opls_902 490 MF N11 14672 -0.407377 14.0067
12706 opls_145 490 MF C11 14673 0.682493 12.011
12707 opls_901 490 MF N21 14674 -0.299731 14.0067
12708 opls_157 490 MF C1 14675 0.024669 12.011
12709 opls_156 490 MF H011 14678 0.0 1.008
12710 opls_156 490 MF H012 14679 0.0 1.008
12711 opls_910 490 MF H21 14680 0.0 1.008
12712 A 490 MF A2 14681 0.0 72.06679999999997
12713 opls_902 490 MF N12 14682 -0.407374 14.0067
12714 opls_145 490 MF C12 14683 0.682437 12.011
12715 opls_901 490 MF N22 14684 -0.299729 14.0067
12716 opls_157 490 MF C2 14685 0.024672 12.011
12717 opls_156 490 MF H021 14688 0.0 1.008
12718 opls_156 490 MF H022 14689 0.0 1.008
12719 opls_910 490 MF H31 14690 0.0 1.008
12720 A 490 MF A3 14691 0.0 72.06679999999997
12721 opls_902 490 MF N13 14692 -0.407483 14.0067
12722 opls_145 490 MF C13 14693 0.682492 12.011
12723 opls_901 490 MF N23 14694 -0.299758 14.0067
12724 opls_157 490 MF C3 14695 0.024689 12.011
12725 opls_156 490 MF H031 14698 0.0 1.008
12726 opls_156 490 MF H032 14699 0.0 1.008
12727 opls_910 490 MF H11 14700 0.0 1.008
12728 A 491 MF A1 14701 0.0 72.06679999999997
12729 opls_902 491 MF N11 14702 -0.407377 14.0067
12730 opls_145 491 MF C11 14703 0.682493 12.011
12731 opls_901 491 MF N21 14704 -0.299731 14.0067
12732 opls_157 491 MF C1 14705 0.024669 12.011
12733 opls_156 491 MF H011 14708 0.0 1.008
12734 opls_156 491 MF H012 14709 0.0 1.008
12735 opls_910 491 MF H21 14710 0.0 1.008
12736 A 491 MF A2 14711 0.0 72.06679999999997
12737 opls_902 491 MF N12 14712 -0.407374 14.0067
12738 opls_145 491 MF C12 14713 0.682437 12.011
12739 opls_901 491 MF N22 14714 -0.299729 14.0067
12740 opls_157 491 MF C2 14715 0.024672 12.011
12741 opls_156 491 MF H021 14718 0.0 1.008
12742 opls_156 491 MF H022 14719 0.0 1.008
12743 opls_910 491 MF H31 14720 0.0 1.008
12744 A 491 MF A3 14721 0.0 72.06679999999997
12745 opls_902 491 MF N13 14722 -0.407483 14.0067
12746 opls_145 491 MF C13 14723 0.682492 12.011
12747 opls_901 491 MF N23 14724 -0.299758 14.0067
12748 opls_157 491 MF C3 14725 0.024689 12.011
12749 opls_156 491 MF H031 14728 0.0 1.008
12750 opls_156 491 MF H032 14729 0.0 1.008
12751 opls_910 491 MF H11 14730 0.0 1.008
12752 A 492 MF A1 14731 0.0 72.06679999999997
12753 opls_902 492 MF N11 14732 -0.407377 14.0067
12754 opls_145 492 MF C11 14733 0.682493 12.011
12755 opls_901 492 MF N21 14734 -0.299731 14.0067
12756 opls_157 492 MF C1 14735 0.024669 12.011
12757 opls_156 492 MF H011 14738 0.0 1.008
12758 opls_156 492 MF H012 14739 0.0 1.008
12759 opls_910 492 MF H21 14740 0.0 1.008
12760 A 492 MF A2 14741 0.0 72.06679999999997
12761 opls_902 492 MF N12 14742 -0.407374 14.0067
12762 opls_145 492 MF C12 14743 0.682437 12.011
12763 opls_901 492 MF N22 14744 -0.299729 14.0067
12764 opls_157 492 MF C2 14745 0.024672 12.011
12765 opls_156 492 MF H021 14748 0.0 1.008
12766 opls_156 492 MF H022 14749 0.0 1.008
12767 opls_910 492 MF H31 14750 0.0 1.008
12768 A 492 MF A3 14751 0.0 72.06679999999997
12769 opls_902 492 MF N13 14752 -0.407483 14.0067
12770 opls_145 492 MF C13 14753 0.682492 12.011
12771 opls_901 492 MF N23 14754 -0.299758 14.0067
12772 opls_157 492 MF C3 14755 0.024689 12.011
12773 opls_156 492 MF H031 14758 0.0 1.008
12774 opls_156 492 MF H032 14759 0.0 1.008
12775 opls_910 492 MF H11 14760 0.0 1.008
12776 A 493 MF A1 14761 0.0 72.06679999999997
12777 opls_902 493 MF N11 14762 -0.407377 14.0067
12778 opls_145 493 MF C11 14763 0.682493 12.011
12779 opls_901 493 MF N21 14764 -0.299731 14.0067
12780 opls_157 493 MF C1 14765 0.024669 12.011
12781 opls_156 493 MF H011 14768 0.0 1.008
12782 opls_156 493 MF H012 14769 0.0 1.008
12783 opls_910 493 MF H21 14770 0.0 1.008
12784 A 493 MF A2 14771 0.0 72.06679999999997
12785 opls_902 493 MF N12 14772 -0.407374 14.0067
12786 opls_145 493 MF C12 14773 0.682437 12.011
12787 opls_901 493 MF N22 14774 -0.299729 14.0067
12788 opls_157 493 MF C2 14775 0.024672 12.011
12789 opls_156 493 MF H021 14778 0.0 1.008
12790 opls_156 493 MF H022 14779 0.0 1.008
12791 opls_910 493 MF H31 14780 0.0 1.008
12792 A 493 MF A3 14781 0.0 72.06679999999997
12793 opls_902 493 MF N13 14782 -0.407483 14.0067
12794 opls_145 493 MF C13 14783 0.682492 12.011
12795 opls_901 493 MF N23 14784 -0.299758 14.0067
12796 opls_157 493 MF C3 14785 0.024689 12.011
12797 opls_156 493 MF H031 14788 0.0 1.008
12798 opls_156 493 MF H032 14789 0.0 1.008
12799 opls_910 493 MF H11 14790 0.0 1.008
12800 A 494 MF A1 14791 0.0 72.06679999999997
12801 opls_902 494 MF N11 14792 -0.407377 14.0067
12802 opls_145 494 MF C11 14793 0.682493 12.011
12803 opls_901 494 MF N21 14794 -0.299731 14.0067
12804 opls_157 494 MF C1 14795 0.024669 12.011
12805 opls_156 494 MF H011 14798 0.0 1.008
12806 opls_156 494 MF H012 14799 0.0 1.008
12807 opls_910 494 MF H21 14800 0.0 1.008
12808 A 494 MF A2 14801 0.0 72.06679999999997
12809 opls_902 494 MF N12 14802 -0.407374 14.0067
12810 opls_145 494 MF C12 14803 0.682437 12.011
12811 opls_901 494 MF N22 14804 -0.299729 14.0067
12812 opls_157 494 MF C2 14805 0.024672 12.011
12813 opls_156 494 MF H021 14808 0.0 1.008
12814 opls_156 494 MF H022 14809 0.0 1.008
12815 opls_910 494 MF H31 14810 0.0 1.008
12816 A 494 MF A3 14811 0.0 72.06679999999997
12817 opls_902 494 MF N13 14812 -0.407483 14.0067
12818 opls_145 494 MF C13 14813 0.682492 12.011
12819 opls_901 494 MF N23 14814 -0.299758 14.0067
12820 opls_157 494 MF C3 14815 0.024689 12.011
12821 opls_156 494 MF H031 14818 0.0 1.008
12822 opls_156 494 MF H032 14819 0.0 1.008
12823 opls_910 494 MF H11 14820 0.0 1.008
12824 A 495 MF A1 14821 0.0 72.06679999999997
12825 opls_902 495 MF N11 14822 -0.407377 14.0067
12826 opls_145 495 MF C11 14823 0.682493 12.011
12827 opls_901 495 MF N21 14824 -0.299731 14.0067
12828 opls_157 495 MF C1 14825 0.024669 12.011
12829 opls_156 495 MF H011 14828 0.0 1.008
12830 opls_156 495 MF H012 14829 0.0 1.008
12831 opls_910 495 MF H21 14830 0.0 1.008
12832 A 495 MF A2 14831 0.0 72.06679999999997
12833 opls_902 495 MF N12 14832 -0.407374 14.0067
12834 opls_145 495 MF C12 14833 0.682437 12.011
12835 opls_901 495 MF N22 14834 -0.299729 14.0067
12836 opls_157 495 MF C2 14835 0.024672 12.011
12837 opls_154 495 MF O2 14836 0.0 15.9994
12838 opls_155 495 MF H02 14837 0.0 1.008
12839 opls_156 495 MF H021 14838 0.0 1.008
12840 opls_156 495 MF H022 14839 0.0 1.008
12841 opls_910 495 MF H31 14840 0.0 1.008
12842 A 495 MF A3 14841 0.0 72.06679999999997
12843 opls_902 495 MF N13 14842 -0.407483 14.0067
12844 opls_145 495 MF C13 14843 0.682492 12.011
12845 opls_901 495 MF N23 14844 -0.299758 14.0067
12846 opls_157 495 MF C3 14845 0.024689 12.011
12847 opls_156 495 MF H031 14848 0.0 1.008
12848 opls_156 495 MF H032 14849 0.0 1.008
12849 opls_910 495 MF H11 14850 0.0 1.008
12850 A 496 MF A1 14851 0.0 72.06679999999997
12851 opls_902 496 MF N11 14852 -0.407377 14.0067
12852 opls_145 496 MF C11 14853 0.682493 12.011
12853 opls_901 496 MF N21 14854 -0.299731 14.0067
12854 opls_157 496 MF C1 14855 0.024669 12.011
12855 opls_156 496 MF H011 14858 0.0 1.008
12856 opls_156 496 MF H012 14859 0.0 1.008
12857 opls_910 496 MF H21 14860 0.0 1.008
12858 A 496 MF A2 14861 0.0 72.06679999999997
12859 opls_902 496 MF N12 14862 -0.407374 14.0067
12860 opls_145 496 MF C12 14863 0.682437 12.011
12861 opls_901 496 MF N22 14864 -0.299729 14.0067
12862 opls_157 496 MF C2 14865 0.024672 12.011
12863 opls_154 496 MF O2 14866 0.0 15.9994
12864 opls_155 496 MF H02 14867 0.0 1.008
12865 opls_156 496 MF H021 14868 0.0 1.008
12866 opls_156 496 MF H022 14869 0.0 1.008
12867 opls_910 496 MF H31 14870 0.0 1.008
12868 A 496 MF A3 14871 0.0 72.06679999999997
12869 opls_902 496 MF N13 14872 -0.407483 14.0067
12870 opls_145 496 MF C13 14873 0.682492 12.011
12871 opls_901 496 MF N23 14874 -0.299758 14.0067
12872 opls_157 496 MF C3 14875 0.024689 12.011
12873 opls_154 496 MF O3 14876 0.0 15.9994
12874 opls_155 496 MF H03 14877 0.0 1.008
12875 opls_156 496 MF H031 14878 0.0 1.008
12876 opls_156 496 MF H032 14879 0.0 1.008
12877 opls_910 496 MF H11 14880 0.0 1.008
12878 A 497 MF A1 14881 0.0 72.06679999999997
12879 opls_902 497 MF N11 14882 -0.407377 14.0067
12880 opls_145 497 MF C11 14883 0.682493 12.011
12881 opls_901 497 MF N21 14884 -0.299731 14.0067
12882 opls_157 497 MF C1 14885 0.024669 12.011
12883 opls_156 497 MF H011 14888 0.0 1.008
12884 opls_156 497 MF H012 14889 0.0 1.008
12885 opls_910 497 MF H21 14890 0.0 1.008
12886 A 497 MF A2 14891 0.0 72.06679999999997
12887 opls_902 497 MF N12 14892 -0.407374 14.0067
12888 opls_145 497 MF C12 14893 0.682437 12.011
12889 opls_901 497 MF N22 14894 -0.299729 14.0067
12890 opls_157 497 MF C2 14895 0.024672 12.011
12891 opls_156 497 MF H021 14898 0.0 1.008
12892 opls_156 497 MF H022 14899 0.0 1.008
12893 opls_910 497 MF H31 14900 0.0 1.008
12894 A 497 MF A3 14901 0.0 72.06679999999997
12895 opls_902 497 MF N13 14902 -0.407483 14.0067
12896 opls_145 497 MF C13 14903 0.682492 12.011
12897 opls_901 497 MF N23 14904 -0.299758 14.0067
12898 opls_157 497 MF C3 14905 0.024689 12.011
12899 opls_156 497 MF H031 14908 0.0 1.008
12900 opls_156 497 MF H032 14909 0.0 1.008
12901 opls_910 497 MF H11 14910 0.0 1.008
12902 A 498 MF A1 14911 0.0 72.06679999999997
12903 opls_902 498 MF N11 14912 -0.407377 14.0067
12904 opls_145 498 MF C11 14913 0.682493 12.011
12905 opls_901 498 MF N21 14914 -0.299731 14.0067
12906 opls_157 498 MF C1 14915 0.024669 12.011
12907 opls_154 498 MF O1 14916 0.0 15.9994
12908 opls_155 498 MF H01 14917 0.0 1.008
12909 opls_156 498 MF H011 14918 0.0 1.008
12910 opls_156 498 MF H012 14919 0.0 1.008
12911 opls_910 498 MF H21 14920 0.0 1.008
12912 A 498 MF A2 14921 0.0 72.06679999999997
12913 opls_902 498 MF N12 14922 -0.407374 14.0067
12914 opls_145 498 MF C12 14923 0.682437 12.011
12915 opls_901 498 MF N22 14924 -0.299729 14.0067
12916 opls_157 498 MF C2 14925 0.024672 12.011
12917 opls_156 498 MF H021 14928 0.0 1.008
12918 opls_156 498 MF H022 14929 0.0 1.008
12919 opls_910 498 MF H31 14930 0.0 1.008
12920 A 498 MF A3 14931 0.0 72.06679999999997
12921 opls_902 498 MF N13 14932 -0.407483 14.0067
12922 opls_145 498 MF C13 14933 0.682492 12.011
12923 opls_901 498 MF N23 14934 -0.299758 14.0067
12924 opls_157 498 MF C3 14935 0.024689 12.011
12925 opls_156 498 MF H031 14938 0.0 1.008
12926 opls_156 498 MF H032 14939 0.0 1.008
12927 opls_910 498 MF H11 14940 0.0 1.008
12928 A 499 MF A1 14941 0.0 72.06679999999997
12929 opls_902 499 MF N11 14942 -0.407377 14.0067
12930 opls_145 499 MF C11 14943 0.682493 12.011
12931 opls_901 499 MF N21 14944 -0.299731 14.0067
12932 opls_157 499 MF C1 14945 0.024669 12.011
12933 opls_156 499 MF H011 14948 0.0 1.008
12934 opls_156 499 MF H012 14949 0.0 1.008
12935 opls_910 499 MF H21 14950 0.0 1.008
12936 A 499 MF A2 14951 0.0 72.06679999999997
12937 opls_902 499 MF N12 14952 -0.407374 14.0067
12938 opls_145 499 MF C12 14953 0.682437 12.011
12939 opls_901 499 MF N22 14954 -0.299729 14.0067
12940 opls_157 499 MF C2 14955 0.024672 12.011
12941 opls_156 499 MF H021 14958 0.0 1.008
12942 opls_156 499 MF H022 14959 0.0 1.008
12943 opls_910 499 MF H31 14960 0.0 1.008
12944 A 499 MF A3 14961 0.0 72.06679999999997
12945 opls_902 499 MF N13 14962 -0.407483 14.0067
12946 opls_145 499 MF C13 14963 0.682492 12.011
12947 opls_901 499 MF N23 14964 -0.299758 14.0067
12948 opls_157 499 MF C3 14965 0.024689 12.011
12949 opls_156 499 MF H031 14968 0.0 1.008
12950 opls_156 499 MF H032 14969 0.0 1.008
12951 opls_910 499 MF H11 14970 0.0 1.008
12952 A 500 MF A1 14971 0.0 72.06679999999997
12953 opls_902 500 MF N11 14972 -0.407377 14.0067
12954 opls_145 500 MF C11 14973 0.682493 12.011
12955 opls_901 500 MF N21 14974 -0.299731 14.0067
12956 opls_157 500 MF C1 14975 0.024669 12.011
12957 opls_156 500 MF H011 14978 0.0 1.008
12958 opls_156 500 MF H012 14979 0.0 1.008
12959 opls_910 500 MF H21 14980 0.0 1.008
12960 A 500 MF A2 14981 0.0 72.06679999999997
12961 opls_902 500 MF N12 14982 -0.407374 14.0067
12962 opls_145 500 MF C12 14983 0.682437 12.011
12963 opls_901 500 MF N22 14984 -0.299729 14.0067
12964 opls_157 500 MF C2 14985 0.024672 12.011
12965 opls_156 500 MF H021 14988 0.0 1.008
12966 opls_156 500 MF H022 14989 0.0 1.008
12967 opls_910 500 MF H31 14990 0.0 1.008
12968 A 500 MF A3 14991 0.0 72.06679999999997
12969 opls_902 500 MF N13 14992 -0.407483 14.0067
12970 opls_145 500 MF C13 14993 0.682492 12.011
12971 opls_901 500 MF N23 14994 -0.299758 14.0067
12972 opls_157 500 MF C3 14995 0.024689 12.011
12973 opls_156 500 MF H031 14998 0.0 1.008
12974 opls_156 500 MF H032 14999 0.0 1.008
12975 opls_910 500 MF H11 15000 0.0 1.008

[ bonds ]
2 3 1 0.135 402500.8
3 4 1 0.137 402500.8
4 5 1 0.147 319657.6
4 9 1 0.101 363171.2
5 6 1 0.143 267776.0
5 7 1 0.110 284512.0
5 8 1 0.110 284512.0
11 12 1 0.135 402500.8
12 13 1 0.137 402500.8
13 14 1 0.147 319657.6
13 18 1 0.101 363171.2
14 15 1 0.143 267776.0
14 16 1 0.110 284512.0
14 17 1 0.110 284512.0
20 21 1 0.135 402500.8
21 22 1 0.137 402500.8
22 23 1 0.147 319657.6
22 27 1 0.101 363171.2
23 24 1 0.143 267776.0
23 25 1 0.110 284512.0
23 26 1 0.110 284512.0
29 30 1 0.135 402500.8
30 31 1 0.137 402500.8
31 32 1 0.147 319657.6
31 36 1 0.101 363171.2
32 33 1 0.143 267776.0
32 34 1 0.110 284512.0
32 35 1 0.110 284512.0
38 39 1 0.135 402500.8
39 40 1 0.137 402500.8
40 41 1 0.147 319657.6
40 46 1 0.101 363171.2
41 42 1 0.143 267776.0
41 44 1 0.110 284512.0
41 45 1 0.110 284512.0
42 43 1 0.098 462750.4
48 49 1 0.135 402500.8
49 50 1 0.137 402500.8
50 51 1 0.147 319657.6
50 56 1 0.101 363171.2
51 52 1 0.143 267776.0
51 54 1 0.110 284512.0
51 55 1 0.110 284512.0
52 53 1 0.097 462750.4
58 59 1 0.135 402500.8
59 60 1 0.137 402500.8
60 61 1 0.147 319657.6
60 65 1 0.101 363171.2
61 62 1 0.143 267776.0
61 63 1 0.110 284512.0
61 64 1 0.110 284512.0
67 68 1 0.135 402500.8
68 69 1 0.137 402500.8
69 70 1 0.147 319657.6
69 74 1 0.101 363171.2
70 71 1 0.143 267776.0
70 72 1 0.110 284512.0
70 73 1 0.110 284512.0
76 77 1 0.135 402500.8
77 78 1 0.137 402500.8
78 79 1 0.147 319657.6
78 83 1 0.101 363171.2
79 80 1 0.143 267776.0
79 81 1 0.110 284512.0
79 82 1 0.110 284512.0
85 86 1 0.135 402500.8
86 87 1 0.137 402500.8
87 88 1 0.147 319657.6
87 92 1 0.101 363171.2
88 89 1 0.143 267776.0
88 90 1 0.110 284512.0
88 91 1 0.110 284512.0
94 95 1 0.135 402500.8
95 96 1 0.137 402500.8
96 97 1 0.147 319657.6
96 102 1 0.101 363171.2
97 98 1 0.143 267776.0
97 100 1 0.110 284512.0
97 101 1 0.110 284512.0
98 99 1 0.098 462750.4
104 105 1 0.135 402500.8
105 106 1 0.137 402500.8
106 107 1 0.147 319657.6
106 111 1 0.101 363171.2
107 108 1 0.143 267776.0
107 109 1 0.110 284512.0
107 110 1 0.110 284512.0
113 114 1 0.135 402500.8
114 115 1 0.137 402500.8
115 116 1 0.147 319657.6
115 120 1 0.101 363171.2
116 117 1 0.143 267776.0
116 118 1 0.110 284512.0
116 119 1 0.110 284512.0
122 123 1 0.135 402500.8
123 124 1 0.137 402500.8
124 125 1 0.147 319657.6
124 129 1 0.101 363171.2
125 126 1 0.143 267776.0
125 127 1 0.110 284512.0
125 128 1 0.110 284512.0
131 132 1 0.135 402500.8
132 133 1 0.137 402500.8
133 134 1 0.147 319657.6
133 138 1 0.101 363171.2
134 135 1 0.143 267776.0
134 136 1 0.110 284512.0
134 137 1 0.110 284512.0
140 141 1 0.135 402500.8
141 142 1 0.137 402500.8
142 143 1 0.147 319657.6
142 147 1 0.101 363171.2
143 144 1 0.143 267776.0
143 145 1 0.110 284512.0
143 146 1 0.110 284512.0
149 150 1 0.135 402500.8
150 151 1 0.137 402500.8
151 152 1 0.147 319657.6
151 156 1 0.101 363171.2
152 153 1 0.143 267776.0
152 154 1 0.110 284512.0
152 155 1 0.110 284512.0
158 159 1 0.135 402500.8
159 160 1 0.137 402500.8
160 161 1 0.147 319657.6
160 165 1 0.101 363171.2
161 162 1 0.143 267776.0
161 163 1 0.110 284512.0
161 164 1 0.110 284512.0
167 168 1 0.135 402500.8
168 169 1 0.137 402500.8
169 170 1 0.147 319657.6
169 174 1 0.101 363171.2
170 171 1 0.143 267776.0
170 172 1 0.110 284512.0
170 173 1 0.110 284512.0
176 177 1 0.135 402500.8
177 178 1 0.137 402500.8
178 179 1 0.147 319657.6
178 183 1 0.101 363171.2
179 180 1 0.143 267776.0
179 181 1 0.110 284512.0
179 182 1 0.110 284512.0
185 186 1 0.135 402500.8
186 187 1 0.137 402500.8
187 188 1 0.147 319657.6
187 192 1 0.101 363171.2
188 189 1 0.143 267776.0
188 190 1 0.110 284512.0
188 191 1 0.110 284512.0
194 195 1 0.135 402500.8
195 196 1 0.137 402500.8
196 197 1 0.147 319657.6
196 201 1 0.101 363171.2
197 198 1 0.143 267776.0
197 199 1 0.110 284512.0
197 200 1 0.110 284512.0
203 204 1 0.135 402500.8
204 205 1 0.137 402500.8
205 206 1 0.147 319657.6
205 210 1 0.101 363171.2
206 207 1 0.143 267776.0
206 208 1 0.110 284512.0
206 209 1 0.110 284512.0
212 213 1 0.135 402500.8
213 214 1 0.137 402500.8
214 215 1 0.147 319657.6
214 220 1 0.101 363171.2
215 216 1 0.143 267776.0
215 218 1 0.110 284512.0
215 219 1 0.110 284512.0
216 217 1 0.097 462750.4
222 223 1 0.135 402500.8
223 224 1 0.137 402500.8
224 225 1 0.147 319657.6
224 229 1 0.101 363171.2
225 226 1 0.143 267776.0
225 227 1 0.110 284512.0
225 228 1 0.110 284512.0
231 232 1 0.135 402500.8
232 233 1 0.137 402500.8
233 234 1 0.147 319657.6
233 238 1 0.101 363171.2
234 235 1 0.143 267776.0
234 236 1 0.110 284512.0
234 237 1 0.110 284512.0
240 241 1 0.135 402500.8
241 242 1 0.137 402500.8
242 243 1 0.147 319657.6
242 247 1 0.101 363171.2
243 244 1 0.143 267776.0
243 245 1 0.110 284512.0
243 246 1 0.110 284512.0
249 250 1 0.135 402500.8
250 251 1 0.137 402500.8
251 252 1 0.147 319657.6
251 257 1 0.101 363171.2
252 253 1 0.143 267776.0
252 255 1 0.110 284512.0
252 256 1 0.110 284512.0
253 254 1 0.098 462750.4
259 260 1 0.135 402500.8
260 261 1 0.137 402500.8
261 262 1 0.147 319657.6
261 266 1 0.101 363171.2
262 263 1 0.143 267776.0
262 264 1 0.110 284512.0
262 265 1 0.110 284512.0
268 269 1 0.135 402500.8
269 270 1 0.137 402500.8
270 271 1 0.147 319657.6
270 275 1 0.101 363171.2
271 272 1 0.143 267776.0
271 273 1 0.110 284512.0
271 274 1 0.110 284512.0
277 278 1 0.135 402500.8
278 279 1 0.137 402500.8
279 280 1 0.147 319657.6
279 284 1 0.101 363171.2
280 281 1 0.143 267776.0
280 282 1 0.110 284512.0
280 283 1 0.110 284512.0
286 287 1 0.135 402500.8
287 288 1 0.137 402500.8
288 289 1 0.147 319657.6
288 293 1 0.101 363171.2
289 290 1 0.143 267776.0
289 291 1 0.110 284512.0
289 292 1 0.110 284512.0
295 296 1 0.135 402500.8
296 297 1 0.137 402500.8
297 298 1 0.147 319657.6
297 302 1 0.101 363171.2
298 299 1 0.143 267776.0
298 300 1 0.110 284512.0
298 301 1 0.110 284512.0
304 305 1 0.135 402500.8
305 306 1 0.137 402500.8
306 307 1 0.147 319657.6
306 311 1 0.101 363171.2
307 308 1 0.143 267776.0
307 309 1 0.110 284512.0
307 310 1 0.110 284512.0
313 314 1 0.135 402500.8
314 315 1 0.137 402500.8
315 316 1 0.147 319657.6
315 320 1 0.101 363171.2
316 317 1 0.143 267776.0
316 318 1 0.110 284512.0
316 319 1 0.110 284512.0
322 323 1 0.135 402500.8
323 324 1 0.137 402500.8
324 325 1 0.147 319657.6
324 329 1 0.101 363171.2
325 326 1 0.143 267776.0
325 327 1 0.110 284512.0
325 328 1 0.110 284512.0
331 332 1 0.135 402500.8
332 333 1 0.137 402500.8
333 334 1 0.147 319657.6
333 338 1 0.101 363171.2
334 335 1 0.143 267776.0
334 336 1 0.110 284512.0
334 337 1 0.110 284512.0
340 341 1 0.135 402500.8
341 342 1 0.137 402500.8
342 343 1 0.147 319657.6
342 348 1 0.101 363171.2
343 344 1 0.143 267776.0
343 346 1 0.110 284512.0
343 347 1 0.110 284512.0
344 345 1 0.098 462750.4
350 351 1 0.135 402500.8
351 352 1 0.137 402500.8
352 353 1 0.147 319657.6
352 357 1 0.101 363171.2
353 354 1 0.143 267776.0
353 355 1 0.110 284512.0
353 356 1 0.110 284512.0
359 360 1 0.135 402500.8
360 361 1 0.137 402500.8
361 362 1 0.147 319657.6
361 366 1 0.101 363171.2
362 363 1 0.143 267776.0
362 364 1 0.110 284512.0
362 365 1 0.110 284512.0
368 369 1 0.135 402500.8
369 370 1 0.137 402500.8
370 371 1 0.147 319657.6
370 376 1 0.101 363171.2
371 372 1 0.143 267776.0
371 374 1 0.110 284512.0
371 375 1 0.110 284512.0
372 373 1 0.098 462750.4
378 379 1 0.135 402500.8
379 380 1 0.137 402500.8
380 381 1 0.147 319657.6
380 385 1 0.101 363171.2
381 382 1 0.143 267776.0
381 383 1 0.110 284512.0
381 384 1 0.110 284512.0
387 388 1 0.135 402500.8
388 389 1 0.137 402500.8
389 390 1 0.147 319657.6
389 394 1 0.101 363171.2
390 391 1 0.143 267776.0
390 392 1 0.110 284512.0
390 393 1 0.110 284512.0
396 397 1 0.135 402500.8
397 398 1 0.137 402500.8
398 399 1 0.147 319657.6
398 404 1 0.101 363171.2
399 400 1 0.143 267776.0
399 402 1 0.110 284512.0
399 403 1 0.110 284512.0
400 401 1 0.098 462750.4
406 407 1 0.135 402500.8
407 408 1 0.137 402500.8
408 409 1 0.147 319657.6
408 413 1 0.101 363171.2
409 410 1 0.143 267776.0
409 411 1 0.110 284512.0
409 412 1 0.110 284512.0
415 416 1 0.135 402500.8
416 417 1 0.137 402500.8
417 418 1 0.147 319657.6
417 422 1 0.101 363171.2
418 419 1 0.143 267776.0
418 420 1 0.110 284512.0
418 421 1 0.110 284512.0
424 425 1 0.135 402500.8
425 426 1 0.137 402500.8
426 427 1 0.147 319657.6
426 431 1 0.101 363171.2
427 428 1 0.143 267776.0
427 429 1 0.110 284512.0
427 430 1 0.110 284512.0
433 434 1 0.135 402500.8
434 435 1 0.137 402500.8
435 436 1 0.147 319657.6
435 440 1 0.101 363171.2
436 437 1 0.143 267776.0
436 438 1 0.110 284512.0
436 439 1 0.110 284512.0
442 443 1 0.135 402500.8
443 444 1 0.137 402500.8
444 445 1 0.147 319657.6
444 449 1 0.101 363171.2
445 446 1 0.143 267776.0
445 447 1 0.110 284512.0
445 448 1 0.110 284512.0
451 452 1 0.135 402500.8
452 453 1 0.137 402500.8
453 454 1 0.147 319657.6
453 458 1 0.101 363171.2
454 455 1 0.143 267776.0
454 456 1 0.110 284512.0
454 457 1 0.110 284512.0
460 461 1 0.135 402500.8
461 462 1 0.137 402500.8
462 463 1 0.147 319657.6
462 467 1 0.101 363171.2
463 464 1 0.143 267776.0
463 465 1 0.110 284512.0
463 466 1 0.110 284512.0
469 470 1 0.135 402500.8
470 471 1 0.137 402500.8
471 472 1 0.147 319657.6
471 476 1 0.101 363171.2
472 473 1 0.143 267776.0
472 474 1 0.110 284512.0
472 475 1 0.110 284512.0
478 479 1 0.135 402500.8
479 480 1 0.137 402500.8
480 481 1 0.147 319657.6
480 485 1 0.101 363171.2
481 482 1 0.143 267776.0
481 483 1 0.110 284512.0
481 484 1 0.110 284512.0
487 488 1 0.135 402500.8
488 489 1 0.137 402500.8
489 490 1 0.147 319657.6
489 494 1 0.101 363171.2
490 491 1 0.143 267776.0
490 492 1 0.110 284512.0
490 493 1 0.110 284512.0
496 497 1 0.135 402500.8
497 498 1 0.137 402500.8
498 499 1 0.147 319657.6
498 503 1 0.101 363171.2
499 500 1 0.143 267776.0
499 501 1 0.110 284512.0
499 502 1 0.110 284512.0
505 506 1 0.135 402500.8
506 507 1 0.137 402500.8
507 508 1 0.147 319657.6
507 512 1 0.101 363171.2
508 509 1 0.143 267776.0
508 510 1 0.110 284512.0
508 511 1 0.110 284512.0
514 515 1 0.135 402500.8
515 516 1 0.137 402500.8
516 517 1 0.147 319657.6
516 521 1 0.101 363171.2
517 518 1 0.143 267776.0
517 519 1 0.110 284512.0
517 520 1 0.110 284512.0
523 524 1 0.135 402500.8
524 525 1 0.137 402500.8
525 526 1 0.147 319657.6
525 529 1 0.101 363171.2
526 527 1 0.110 284512.0
526 528 1 0.110 284512.0
531 532 1 0.135 402500.8
532 533 1 0.137 402500.8
533 534 1 0.147 319657.6
533 538 1 0.101 363171.2
534 535 1 0.143 267776.0
534 536 1 0.110 284512.0
534 537 1 0.110 284512.0
540 541 1 0.135 402500.8
541 542 1 0.137 402500.8
542 543 1 0.147 319657.6
542 547 1 0.101 363171.2
543 544 1 0.143 267776.0
543 545 1 0.110 284512.0
543 546 1 0.110 284512.0
549 550 1 0.135 402500.8
550 551 1 0.137 402500.8
551 552 1 0.147 319657.6
551 556 1 0.101 363171.2
552 553 1 0.143 267776.0
552 554 1 0.110 284512.0
552 555 1 0.110 284512.0
558 559 1 0.135 402500.8
559 560 1 0.137 402500.8
560 561 1 0.147 319657.6
560 566 1 0.101 363171.2
561 562 1 0.143 267776.0
561 564 1 0.110 284512.0
561 565 1 0.110 284512.0
562 563 1 0.098 462750.4
568 569 1 0.135 402500.8
569 570 1 0.137 402500.8
570 571 1 0.147 319657.6
570 575 1 0.101 363171.2
571 572 1 0.143 267776.0
571 573 1 0.110 284512.0
571 574 1 0.110 284512.0
577 578 1 0.135 402500.8
578 579 1 0.137 402500.8
579 580 1 0.147 319657.6
579 584 1 0.101 363171.2
580 581 1 0.143 267776.0
580 582 1 0.110 284512.0
580 583 1 0.110 284512.0
586 587 1 0.135 402500.8
587 588 1 0.137 402500.8
588 589 1 0.147 319657.6
588 593 1 0.101 363171.2
589 590 1 0.143 267776.0
589 591 1 0.110 284512.0
589 592 1 0.110 284512.0
595 596 1 0.135 402500.8
596 597 1 0.137 402500.8
597 598 1 0.147 319657.6
597 602 1 0.101 363171.2
598 599 1 0.143 267776.0
598 600 1 0.110 284512.0
598 601 1 0.110 284512.0
604 605 1 0.135 402500.8
605 606 1 0.137 402500.8
606 607 1 0.147 319657.6
606 611 1 0.101 363171.2
607 608 1 0.143 267776.0
607 609 1 0.110 284512.0
607 610 1 0.110 284512.0
613 614 1 0.135 402500.8
614 615 1 0.137 402500.8
615 616 1 0.147 319657.6
615 621 1 0.101 363171.2
616 617 1 0.143 267776.0
616 619 1 0.110 284512.0
616 620 1 0.110 284512.0
617 618 1 0.098 462750.4
623 624 1 0.135 402500.8
624 625 1 0.137 402500.8
625 626 1 0.147 319657.6
625 630 1 0.101 363171.2
626 627 1 0.143 267776.0
626 628 1 0.110 284512.0
626 629 1 0.110 284512.0
632 633 1 0.135 402500.8
633 634 1 0.137 402500.8
634 635 1 0.147 319657.6
634 639 1 0.101 363171.2
635 636 1 0.143 267776.0
635 637 1 0.110 284512.0
635 638 1 0.110 284512.0
641 642 1 0.135 402500.8
642 643 1 0.137 402500.8
643 644 1 0.147 319657.6
643 648 1 0.101 363171.2
644 645 1 0.143 267776.0
644 646 1 0.110 284512.0
644 647 1 0.110 284512.0
650 651 1 0.135 402500.8
651 652 1 0.137 402500.8
652 653 1 0.147 319657.6
652 657 1 0.101 363171.2
653 654 1 0.143 267776.0
653 655 1 0.110 284512.0
653 656 1 0.110 284512.0
659 660 1 0.135 402500.8
660 661 1 0.137 402500.8
661 662 1 0.147 319657.6
661 666 1 0.101 363171.2
662 663 1 0.143 267776.0
662 664 1 0.110 284512.0
662 665 1 0.110 284512.0
668 669 1 0.135 402500.8
669 670 1 0.137 402500.8
670 671 1 0.147 319657.6
670 675 1 0.101 363171.2
671 672 1 0.143 267776.0
671 673 1 0.110 284512.0
671 674 1 0.110 284512.0
677 678 1 0.135 402500.8
678 679 1 0.137 402500.8
679 680 1 0.147 319657.6
679 684 1 0.101 363171.2
680 681 1 0.143 267776.0
680 682 1 0.110 284512.0
680 683 1 0.110 284512.0
686 687 1 0.135 402500.8
687 688 1 0.137 402500.8
688 689 1 0.147 319657.6
688 694 1 0.101 363171.2
689 690 1 0.143 267776.0
689 692 1 0.110 284512.0
689 693 1 0.110 284512.0
690 691 1 0.098 462750.4
696 697 1 0.135 402500.8
697 698 1 0.137 402500.8
698 699 1 0.147 319657.6
698 703 1 0.101 363171.2
699 700 1 0.143 267776.0
699 701 1 0.110 284512.0
699 702 1 0.110 284512.0
705 706 1 0.135 402500.8
706 707 1 0.137 402500.8
707 708 1 0.147 319657.6
707 712 1 0.101 363171.2
708 709 1 0.143 267776.0
708 710 1 0.110 284512.0
708 711 1 0.110 284512.0
714 715 1 0.135 402500.8
715 716 1 0.137 402500.8
716 717 1 0.147 319657.6
716 721 1 0.101 363171.2
717 718 1 0.143 267776.0
717 719 1 0.110 284512.0
717 720 1 0.110 284512.0
723 724 1 0.135 402500.8
724 725 1 0.137 402500.8
725 726 1 0.147 319657.6
725 729 1 0.101 363171.2
726 727 1 0.110 284512.0
726 728 1 0.110 284512.0
731 732 1 0.135 402500.8
732 733 1 0.137 402500.8
733 734 1 0.147 319657.6
733 738 1 0.101 363171.2
734 735 1 0.143 267776.0
734 736 1 0.110 284512.0
734 737 1 0.110 284512.0
740 741 1 0.135 402500.8
741 742 1 0.137 402500.8
742 743 1 0.147 319657.6
742 747 1 0.101 363171.2
743 744 1 0.143 267776.0
743 745 1 0.110 284512.0
743 746 1 0.110 284512.0
749 750 1 0.135 402500.8
750 751 1 0.137 402500.8
751 752 1 0.147 319657.6
751 757 1 0.101 363171.2
752 753 1 0.143 267776.0
752 755 1 0.110 284512.0
752 756 1 0.110 284512.0
753 754 1 0.098 462750.4
759 760 1 0.135 402500.8
760 761 1 0.137 402500.8
761 762 1 0.147 319657.6
761 767 1 0.101 363171.2
762 763 1 0.143 267776.0
762 765 1 0.110 284512.0
762 766 1 0.110 284512.0
763 764 1 0.097 462750.4
769 770 1 0.135 402500.8
770 771 1 0.137 402500.8
771 772 1 0.147 319657.6
771 776 1 0.101 363171.2
772 773 1 0.143 267776.0
772 774 1 0.110 284512.0
772 775 1 0.110 284512.0
778 779 1 0.135 402500.8
779 780 1 0.137 402500.8
780 781 1 0.147 319657.6
780 785 1 0.101 363171.2
781 782 1 0.143 267776.0
781 783 1 0.110 284512.0
781 784 1 0.110 284512.0
787 788 1 0.135 402500.8
788 789 1 0.137 402500.8
789 790 1 0.147 319657.6
789 794 1 0.101 363171.2
790 791 1 0.143 267776.0
790 792 1 0.110 284512.0
790 793 1 0.110 284512.0
796 797 1 0.135 402500.8
797 798 1 0.137 402500.8
798 799 1 0.147 319657.6
798 802 1 0.101 363171.2
799 800 1 0.110 284512.0
799 801 1 0.110 284512.0
804 805 1 0.135 402500.8
805 806 1 0.137 402500.8
806 807 1 0.147 319657.6
806 811 1 0.101 363171.2
807 808 1 0.143 267776.0
807 809 1 0.110 284512.0
807 810 1 0.110 284512.0
813 814 1 0.135 402500.8
814 815 1 0.137 402500.8
815 816 1 0.147 319657.6
815 820 1 0.101 363171.2
816 817 1 0.143 267776.0
816 818 1 0.110 284512.0
816 819 1 0.110 284512.0
822 823 1 0.135 402500.8
823 824 1 0.137 402500.8
824 825 1 0.147 319657.6
824 829 1 0.101 363171.2
825 826 1 0.143 267776.0
825 827 1 0.110 284512.0
825 828 1 0.110 284512.0
831 832 1 0.135 402500.8
832 833 1 0.137 402500.8
833 834 1 0.147 319657.6
833 838 1 0.101 363171.2
834 835 1 0.143 267776.0
834 836 1 0.110 284512.0
834 837 1 0.110 284512.0
840 841 1 0.135 402500.8
841 842 1 0.137 402500.8
842 843 1 0.147 319657.6
842 847 1 0.101 363171.2
843 844 1 0.143 267776.0
843 845 1 0.110 284512.0
843 846 1 0.110 284512.0
849 850 1 0.135 402500.8
850 851 1 0.137 402500.8
851 852 1 0.147 319657.6
851 856 1 0.101 363171.2
852 853 1 0.143 267776.0
852 854 1 0.110 284512.0
852 855 1 0.110 284512.0
858 859 1 0.135 402500.8
859 860 1 0.137 402500.8
860 861 1 0.147 319657.6
860 865 1 0.101 363171.2
861 862 1 0.143 267776.0
861 863 1 0.110 284512.0
861 864 1 0.110 284512.0
867 868 1 0.135 402500.8
868 869 1 0.137 402500.8
869 870 1 0.147 319657.6
869 874 1 0.101 363171.2
870 871 1 0.143 267776.0
870 872 1 0.110 284512.0
870 873 1 0.110 284512.0
876 877 1 0.135 402500.8
877 878 1 0.137 402500.8
878 879 1 0.147 319657.6
878 882 1 0.101 363171.2
879 880 1 0.110 284512.0
879 881 1 0.110 284512.0
884 885 1 0.135 402500.8
885 886 1 0.137 402500.8
886 887 1 0.147 319657.6
886 891 1 0.101 363171.2
887 888 1 0.143 267776.0
887 889 1 0.110 284512.0
887 890 1 0.110 284512.0
893 894 1 0.135 402500.8
894 895 1 0.137 402500.8
895 896 1 0.147 319657.6
895 901 1 0.101 363171.2
896 897 1 0.143 267776.0
896 899 1 0.110 284512.0
896 900 1 0.110 284512.0
897 898 1 0.097 462750.4
903 904 1 0.135 402500.8
904 905 1 0.137 402500.8
905 906 1 0.147 319657.6
905 910 1 0.101 363171.2
906 907 1 0.143 267776.0
906 908 1 0.110 284512.0
906 909 1 0.110 284512.0
912 913 1 0.135 402500.8
913 914 1 0.137 402500.8
914 915 1 0.147 319657.6
914 919 1 0.101 363171.2
915 916 1 0.143 267776.0
915 917 1 0.110 284512.0
915 918 1 0.110 284512.0
921 922 1 0.135 402500.8
922 923 1 0.137 402500.8
923 924 1 0.147 319657.6
923 928 1 0.101 363171.2
924 925 1 0.143 267776.0
924 926 1 0.110 284512.0
924 927 1 0.110 284512.0
930 931 1 0.135 402500.8
931 932 1 0.137 402500.8
932 933 1 0.147 319657.6
932 937 1 0.101 363171.2
933 934 1 0.143 267776.0
933 935 1 0.110 284512.0
933 936 1 0.110 284512.0
939 940 1 0.135 402500.8
940 941 1 0.137 402500.8
941 942 1 0.147 319657.6
941 946 1 0.101 363171.2
942 943 1 0.143 267776.0
942 944 1 0.110 284512.0
942 945 1 0.110 284512.0
948 949 1 0.135 402500.8
949 950 1 0.137 402500.8
950 951 1 0.147 319657.6
950 955 1 0.101 363171.2
951 952 1 0.143 267776.0
951 953 1 0.110 284512.0
951 954 1 0.110 284512.0
957 958 1 0.135 402500.8
958 959 1 0.137 402500.8
959 960 1 0.147 319657.6
959 964 1 0.101 363171.2
960 961 1 0.143 267776.0
960 962 1 0.110 284512.0
960 963 1 0.110 284512.0
966 967 1 0.135 402500.8
967 968 1 0.137 402500.8
968 969 1 0.147 319657.6
968 974 1 0.101 363171.2
969 970 1 0.143 267776.0
969 972 1 0.110 284512.0
969 973 1 0.110 284512.0
970 971 1 0.098 462750.4
976 977 1 0.135 402500.8
977 978 1 0.137 402500.8
978 979 1 0.147 319657.6
978 984 1 0.101 363171.2
979 980 1 0.143 267776.0
979 982 1 0.110 284512.0
979 983 1 0.110 284512.0
980 981 1 0.097 462750.4
986 987 1 0.135 402500.8
987 988 1 0.137 402500.8
988 989 1 0.147 319657.6
988 994 1 0.101 363171.2
989 990 1 0.143 267776.0
989 992 1 0.110 284512.0
989 993 1 0.110 284512.0
990 991 1 0.098 462750.4
996 997 1 0.135 402500.8
997 998 1 0.137 402500.8
998 999 1 0.147 319657.6
998 1003 1 0.101 363171.2
999 1000 1 0.143 267776.0
999 1001 1 0.110 284512.0
999 1002 1 0.110 284512.0
1005 1006 1 0.135 402500.8
1006 1007 1 0.137 402500.8
1007 1008 1 0.147 319657.6
1007 1012 1 0.101 363171.2
1008 1009 1 0.143 267776.0
1008 1010 1 0.110 284512.0
1008 1011 1 0.110 284512.0
1014 1015 1 0.135 402500.8
1015 1016 1 0.137 402500.8
1016 1017 1 0.147 319657.6
1016 1021 1 0.101 363171.2
1017 1018 1 0.143 267776.0
1017 1019 1 0.110 284512.0
1017 1020 1 0.110 284512.0
1023 1024 1 0.135 402500.8
1024 1025 1 0.137 402500.8
1025 1026 1 0.147 319657.6
1025 1030 1 0.101 363171.2
1026 1027 1 0.143 267776.0
1026 1028 1 0.110 284512.0
1026 1029 1 0.110 284512.0
1032 1033 1 0.135 402500.8
1033 1034 1 0.137 402500.8
1034 1035 1 0.147 319657.6
1034 1039 1 0.101 363171.2
1035 1036 1 0.143 267776.0
1035 1037 1 0.110 284512.0
1035 1038 1 0.110 284512.0
1041 1042 1 0.135 402500.8
1042 1043 1 0.137 402500.8
1043 1044 1 0.147 319657.6
1043 1048 1 0.101 363171.2
1044 1045 1 0.143 267776.0
1044 1046 1 0.110 284512.0
1044 1047 1 0.110 284512.0
1050 1051 1 0.135 402500.8
1051 1052 1 0.137 402500.8
1052 1053 1 0.147 319657.6
1052 1057 1 0.101 363171.2
1053 1054 1 0.143 267776.0
1053 1055 1 0.110 284512.0
1053 1056 1 0.110 284512.0
1059 1060 1 0.135 402500.8
1060 1061 1 0.137 402500.8
1061 1062 1 0.147 319657.6
1061 1066 1 0.101 363171.2
1062 1063 1 0.143 267776.0
1062 1064 1 0.110 284512.0
1062 1065 1 0.110 284512.0
1068 1069 1 0.135 402500.8
1069 1070 1 0.137 402500.8
1070 1071 1 0.147 319657.6
1070 1076 1 0.101 363171.2
1071 1072 1 0.143 267776.0
1071 1074 1 0.110 284512.0
1071 1075 1 0.110 284512.0
1072 1073 1 0.098 462750.4
1078 1079 1 0.135 402500.8
1079 1080 1 0.137 402500.8
1080 1081 1 0.147 319657.6
1080 1085 1 0.101 363171.2
1081 1082 1 0.143 267776.0
1081 1083 1 0.110 284512.0
1081 1084 1 0.110 284512.0
1087 1088 1 0.135 402500.8
1088 1089 1 0.137 402500.8
1089 1090 1 0.147 319657.6
1089 1095 1 0.101 363171.2
1090 1091 1 0.143 267776.0
1090 1093 1 0.110 284512.0
1090 1094 1 0.110 284512.0
1091 1092 1 0.097 462750.4
1097 1098 1 0.135 402500.8
1098 1099 1 0.137 402500.8
1099 1100 1 0.147 319657.6
1099 1104 1 0.101 363171.2
1100 1101 1 0.143 267776.0
1100 1102 1 0.110 284512.0
1100 1103 1 0.110 284512.0
1106 1107 1 0.135 402500.8
1107 1108 1 0.137 402500.8
1108 1109 1 0.147 319657.6
1108 1112 1 0.101 363171.2
1109 1110 1 0.110 284512.0
1109 1111 1 0.110 284512.0
1114 1115 1 0.135 402500.8
1115 1116 1 0.137 402500.8
1116 1117 1 0.147 319657.6
1116 1121 1 0.101 363171.2
1117 1118 1 0.143 267776.0
1117 1119 1 0.110 284512.0
1117 1120 1 0.110 284512.0
1123 1124 1 0.135 402500.8
1124 1125 1 0.137 402500.8
1125 1126 1 0.147 319657.6
1125 1130 1 0.101 363171.2
1126 1127 1 0.143 267776.0
1126 1128 1 0.110 284512.0
1126 1129 1 0.110 284512.0
1132 1133 1 0.135 402500.8
1133 1134 1 0.137 402500.8
1134 1135 1 0.147 319657.6
1134 1139 1 0.101 363171.2
1135 1136 1 0.143 267776.0
1135 1137 1 0.110 284512.0
1135 1138 1 0.110 284512.0
1141 1142 1 0.135 402500.8
1142 1143 1 0.137 402500.8
1143 1144 1 0.147 319657.6
1143 1148 1 0.101 363171.2
1144 1145 1 0.143 267776.0
1144 1146 1 0.110 284512.0
1144 1147 1 0.110 284512.0
1150 1151 1 0.135 402500.8
1151 1152 1 0.137 402500.8
1152 1153 1 0.147 319657.6
1152 1157 1 0.101 363171.2
1153 1154 1 0.143 267776.0
1153 1155 1 0.110 284512.0
1153 1156 1 0.110 284512.0
1159 1160 1 0.135 402500.8
1160 1161 1 0.137 402500.8
1161 1162 1 0.147 319657.6
1161 1166 1 0.101 363171.2
1162 1163 1 0.143 267776.0
1162 1164 1 0.110 284512.0
1162 1165 1 0.110 284512.0
1168 1169 1 0.135 402500.8
1169 1170 1 0.137 402500.8
1170 1171 1 0.147 319657.6
1170 1175 1 0.101 363171.2
1171 1172 1 0.143 267776.0
1171 1173 1 0.110 284512.0
1171 1174 1 0.110 284512.0
1177 1178 1 0.135 402500.8
1178 1179 1 0.137 402500.8
1179 1180 1 0.147 319657.6
1179 1184 1 0.101 363171.2
1180 1181 1 0.143 267776.0
1180 1182 1 0.110 284512.0
1180 1183 1 0.110 284512.0
1186 1187 1 0.135 402500.8
1187 1188 1 0.137 402500.8
1188 1189 1 0.147 319657.6
1188 1193 1 0.101 363171.2
1189 1190 1 0.143 267776.0
1189 1191 1 0.110 284512.0
1189 1192 1 0.110 284512.0
1195 1196 1 0.135 402500.8
1196 1197 1 0.137 402500.8
1197 1198 1 0.147 319657.6
1197 1202 1 0.101 363171.2
1198 1199 1 0.143 267776.0
1198 1200 1 0.110 284512.0
1198 1201 1 0.110 284512.0
1204 1205 1 0.135 402500.8
1205 1206 1 0.137 402500.8
1206 1207 1 0.147 319657.6
1206 1210 1 0.101 363171.2
1207 1208 1 0.110 284512.0
1207 1209 1 0.110 284512.0
1212 1213 1 0.135 402500.8
1213 1214 1 0.137 402500.8
1214 1215 1 0.147 319657.6
1214 1219 1 0.101 363171.2
1215 1216 1 0.143 267776.0
1215 1217 1 0.110 284512.0
1215 1218 1 0.110 284512.0
1221 1222 1 0.135 402500.8
1222 1223 1 0.137 402500.8
1223 1224 1 0.147 319657.6
1223 1228 1 0.101 363171.2
1224 1225 1 0.143 267776.0
1224 1226 1 0.110 284512.0
1224 1227 1 0.110 284512.0
1230 1231 1 0.135 402500.8
1231 1232 1 0.137 402500.8
1232 1233 1 0.147 319657.6
1232 1237 1 0.101 363171.2
1233 1234 1 0.143 267776.0
1233 1235 1 0.110 284512.0
1233 1236 1 0.110 284512.0
1239 1240 1 0.135 402500.8
1240 1241 1 0.137 402500.8
1241 1242 1 0.147 319657.6
1241 1246 1 0.101 363171.2
1242 1243 1 0.143 267776.0
1242 1244 1 0.110 284512.0
1242 1245 1 0.110 284512.0
1248 1249 1 0.135 402500.8
1249 1250 1 0.137 402500.8
1250 1251 1 0.147 319657.6
1250 1255 1 0.101 363171.2
1251 1252 1 0.143 267776.0
1251 1253 1 0.110 284512.0
1251 1254 1 0.110 284512.0
1257 1258 1 0.135 402500.8
1258 1259 1 0.137 402500.8
1259 1260 1 0.147 319657.6
1259 1263 1 0.101 363171.2
1260 1261 1 0.110 284512.0
1260 1262 1 0.110 284512.0
1265 1266 1 0.135 402500.8
1266 1267 1 0.137 402500.8
1267 1268 1 0.147 319657.6
1267 1272 1 0.101 363171.2
1268 1269 1 0.143 267776.0
1268 1270 1 0.110 284512.0
1268 1271 1 0.110 284512.0
1274 1275 1 0.135 402500.8
1275 1276 1 0.137 402500.8
1276 1277 1 0.147 319657.6
1276 1282 1 0.101 363171.2
1277 1278 1 0.143 267776.0
1277 1280 1 0.110 284512.0
1277 1281 1 0.110 284512.0
1278 1279 1 0.097 462750.4
1284 1285 1 0.135 402500.8
1285 1286 1 0.137 402500.8
1286 1287 1 0.147 319657.6
1286 1291 1 0.101 363171.2
1287 1288 1 0.143 267776.0
1287 1289 1 0.110 284512.0
1287 1290 1 0.110 284512.0
1293 1294 1 0.135 402500.8
1294 1295 1 0.137 402500.8
1295 1296 1 0.147 319657.6
1295 1300 1 0.101 363171.2
1296 1297 1 0.143 267776.0
1296 1298 1 0.110 284512.0
1296 1299 1 0.110 284512.0
1302 1303 1 0.135 402500.8
1303 1304 1 0.137 402500.8
1304 1305 1 0.147 319657.6
1304 1309 1 0.101 363171.2
1305 1306 1 0.143 267776.0
1305 1307 1 0.110 284512.0
1305 1308 1 0.110 284512.0
1311 1312 1 0.135 402500.8
1312 1313 1 0.137 402500.8
1313 1314 1 0.147 319657.6
1313 1318 1 0.101 363171.2
1314 1315 1 0.143 267776.0
1314 1316 1 0.110 284512.0
1314 1317 1 0.110 284512.0
1320 1321 1 0.135 402500.8
1321 1322 1 0.137 402500.8
1322 1323 1 0.147 319657.6
1322 1327 1 0.101 363171.2
1323 1324 1 0.143 267776.0
1323 1325 1 0.110 284512.0
1323 1326 1 0.110 284512.0
1329 1330 1 0.135 402500.8
1330 1331 1 0.137 402500.8
1331 1332 1 0.147 319657.6
1331 1336 1 0.101 363171.2
1332 1333 1 0.143 267776.0
1332 1334 1 0.110 284512.0
1332 1335 1 0.110 284512.0
1338 1339 1 0.135 402500.8
1339 1340 1 0.137 402500.8
1340 1341 1 0.147 319657.6
1340 1345 1 0.101 363171.2
1341 1342 1 0.143 267776.0
1341 1343 1 0.110 284512.0
1341 1344 1 0.110 284512.0
1347 1348 1 0.135 402500.8
1348 1349 1 0.137 402500.8
1349 1350 1 0.147 319657.6
1349 1354 1 0.101 363171.2
1350 1351 1 0.143 267776.0
1350 1352 1 0.110 284512.0
1350 1353 1 0.110 284512.0
1356 1357 1 0.135 402500.8
1357 1358 1 0.137 402500.8
1358 1359 1 0.147 319657.6
1358 1364 1 0.101 363171.2
1359 1360 1 0.143 267776.0
1359 1362 1 0.110 284512.0
1359 1363 1 0.110 284512.0
1360 1361 1 0.097 462750.4
1366 1367 1 0.135 402500.8
1367 1368 1 0.137 402500.8
1368 1369 1 0.147 319657.6
1368 1373 1 0.101 363171.2
1369 1370 1 0.143 267776.0
1369 1371 1 0.110 284512.0
1369 1372 1 0.110 284512.0
1375 1376 1 0.135 402500.8
1376 1377 1 0.137 402500.8
1377 1378 1 0.147 319657.6
1377 1382 1 0.101 363171.2
1378 1379 1 0.143 267776.0
1378 1380 1 0.110 284512.0
1378 1381 1 0.110 284512.0
1384 1385 1 0.135 402500.8
1385 1386 1 0.137 402500.8
1386 1387 1 0.147 319657.6
1386 1391 1 0.101 363171.2
1387 1388 1 0.143 267776.0
1387 1389 1 0.110 284512.0
1387 1390 1 0.110 284512.0
1393 1394 1 0.135 402500.8
1394 1395 1 0.137 402500.8
1395 1396 1 0.147 319657.6
1395 1400 1 0.101 363171.2
1396 1397 1 0.143 267776.0
1396 1398 1 0.110 284512.0
1396 1399 1 0.110 284512.0
1402 1403 1 0.135 402500.8
1403 1404 1 0.137 402500.8
1404 1405 1 0.147 319657.6
1404 1410 1 0.101 363171.2
1405 1406 1 0.143 267776.0
1405 1408 1 0.110 284512.0
1405 1409 1 0.110 284512.0
1406 1407 1 0.098 462750.4
1412 1413 1 0.135 402500.8
1413 1414 1 0.137 402500.8
1414 1415 1 0.147 319657.6
1414 1419 1 0.101 363171.2
1415 1416 1 0.143 267776.0
1415 1417 1 0.110 284512.0
1415 1418 1 0.110 284512.0
1421 1422 1 0.135 402500.8
1422 1423 1 0.137 402500.8
1423 1424 1 0.147 319657.6
1423 1427 1 0.101 363171.2
1424 1425 1 0.110 284512.0
1424 1426 1 0.110 284512.0
1429 1430 1 0.135 402500.8
1430 1431 1 0.137 402500.8
1431 1432 1 0.147 319657.6
1431 1436 1 0.101 363171.2
1432 1433 1 0.143 267776.0
1432 1434 1 0.110 284512.0
1432 1435 1 0.110 284512.0
1438 1439 1 0.135 402500.8
1439 1440 1 0.137 402500.8
1440 1441 1 0.147 319657.6
1440 1445 1 0.101 363171.2
1441 1442 1 0.143 267776.0
1441 1443 1 0.110 284512.0
1441 1444 1 0.110 284512.0
1447 1448 1 0.135 402500.8
1448 1449 1 0.137 402500.8
1449 1450 1 0.147 319657.6
1449 1454 1 0.101 363171.2
1450 1451 1 0.143 267776.0
1450 1452 1 0.110 284512.0
1450 1453 1 0.110 284512.0
1456 1457 1 0.135 402500.8
1457 1458 1 0.137 402500.8
1458 1459 1 0.147 319657.6
1458 1463 1 0.101 363171.2
1459 1460 1 0.143 267776.0
1459 1461 1 0.110 284512.0
1459 1462 1 0.110 284512.0
1465 1466 1 0.135 402500.8
1466 1467 1 0.137 402500.8
1467 1468 1 0.147 319657.6
1467 1472 1 0.101 363171.2
1468 1469 1 0.143 267776.0
1468 1470 1 0.110 284512.0
1468 1471 1 0.110 284512.0
1474 1475 1 0.135 402500.8
1475 1476 1 0.137 402500.8
1476 1477 1 0.147 319657.6
1476 1481 1 0.101 363171.2
1477 1478 1 0.143 267776.0
1477 1479 1 0.110 284512.0
1477 1480 1 0.110 284512.0
1483 1484 1 0.135 402500.8
1484 1485 1 0.137 402500.8
1485 1486 1 0.147 319657.6
1485 1490 1 0.101 363171.2
1486 1487 1 0.143 267776.0
1486 1488 1 0.110 284512.0
1486 1489 1 0.110 284512.0
1492 1493 1 0.135 402500.8
1493 1494 1 0.137 402500.8
1494 1495 1 0.147 319657.6
1494 1499 1 0.101 363171.2
1495 1496 1 0.143 267776.0
1495 1497 1 0.110 284512.0
1495 1498 1 0.110 284512.0
1501 1502 1 0.135 402500.8
1502 1503 1 0.137 402500.8
1503 1504 1 0.147 319657.6
1503 1508 1 0.101 363171.2
1504 1505 1 0.143 267776.0
1504 1506 1 0.110 284512.0
1504 1507 1 0.110 284512.0
1510 1511 1 0.135 402500.8
1511 1512 1 0.137 402500.8
1512 1513 1 0.147 319657.6
1512 1517 1 0.101 363171.2
1513 1514 1 0.143 267776.0
1513 1515 1 0.110 284512.0
1513 1516 1 0.110 284512.0
1519 1520 1 0.135 402500.8
1520 1521 1 0.137 402500.8
1521 1522 1 0.147 319657.6
1521 1526 1 0.101 363171.2
1522 1523 1 0.143 267776.0
1522 1524 1 0.110 284512.0
1522 1525 1 0.110 284512.0
1528 1529 1 0.135 402500.8
1529 1530 1 0.137 402500.8
1530 1531 1 0.147 319657.6
1530 1535 1 0.101 363171.2
1531 1532 1 0.143 267776.0
1531 1533 1 0.110 284512.0
1531 1534 1 0.110 284512.0
1537 1538 1 0.135 402500.8
1538 1539 1 0.137 402500.8
1539 1540 1 0.147 319657.6
1539 1544 1 0.101 363171.2
1540 1541 1 0.143 267776.0
1540 1542 1 0.110 284512.0
1540 1543 1 0.110 284512.0
1546 1547 1 0.135 402500.8
1547 1548 1 0.137 402500.8
1548 1549 1 0.147 319657.6
1548 1553 1 0.101 363171.2
1549 1550 1 0.143 267776.0
1549 1551 1 0.110 284512.0
1549 1552 1 0.110 284512.0
1555 1556 1 0.135 402500.8
1556 1557 1 0.137 402500.8
1557 1558 1 0.147 319657.6
1557 1561 1 0.101 363171.2
1558 1559 1 0.110 284512.0
1558 1560 1 0.110 284512.0
1563 1564 1 0.135 402500.8
1564 1565 1 0.137 402500.8
1565 1566 1 0.147 319657.6
1565 1570 1 0.101 363171.2
1566 1567 1 0.143 267776.0
1566 1568 1 0.110 284512.0
1566 1569 1 0.110 284512.0
1572 1573 1 0.135 402500.8
1573 1574 1 0.137 402500.8
1574 1575 1 0.147 319657.6
1574 1579 1 0.101 363171.2
1575 1576 1 0.143 267776.0
1575 1577 1 0.110 284512.0
1575 1578 1 0.110 284512.0
1581 1582 1 0.135 402500.8
1582 1583 1 0.137 402500.8
1583 1584 1 0.147 319657.6
1583 1588 1 0.101 363171.2
1584 1585 1 0.143 267776.0
1584 1586 1 0.110 284512.0
1584 1587 1 0.110 284512.0
1590 1591 1 0.135 402500.8
1591 1592 1 0.137 402500.8
1592 1593 1 0.147 319657.6
1592 1597 1 0.101 363171.2
1593 1594 1 0.143 267776.0
1593 1595 1 0.110 284512.0
1593 1596 1 0.110 284512.0
1599 1600 1 0.135 402500.8
1600 1601 1 0.137 402500.8
1601 1602 1 0.147 319657.6
1601 1606 1 0.101 363171.2
1602 1603 1 0.143 267776.0
1602 1604 1 0.110 284512.0
1602 1605 1 0.110 284512.0
1608 1609 1 0.135 402500.8
1609 1610 1 0.137 402500.8
1610 1611 1 0.147 319657.6
1610 1615 1 0.101 363171.2
1611 1612 1 0.143 267776.0
1611 1613 1 0.110 284512.0
1611 1614 1 0.110 284512.0
1617 1618 1 0.135 402500.8
1618 1619 1 0.137 402500.8
1619 1620 1 0.147 319657.6
1619 1624 1 0.101 363171.2
1620 1621 1 0.143 267776.0
1620 1622 1 0.110 284512.0
1620 1623 1 0.110 284512.0
1626 1627 1 0.135 402500.8
1627 1628 1 0.137 402500.8
1628 1629 1 0.147 319657.6
1628 1633 1 0.101 363171.2
1629 1630 1 0.143 267776.0
1629 1631 1 0.110 284512.0
1629 1632 1 0.110 284512.0
1635 1636 1 0.135 402500.8
1636 1637 1 0.137 402500.8
1637 1638 1 0.147 319657.6
1637 1642 1 0.101 363171.2
1638 1639 1 0.143 267776.0
1638 1640 1 0.110 284512.0
1638 1641 1 0.110 284512.0
1644 1645 1 0.135 402500.8
1645 1646 1 0.137 402500.8
1646 1647 1 0.147 319657.6
1646 1652 1 0.101 363171.2
1647 1648 1 0.143 267776.0
1647 1650 1 0.110 284512.0
1647 1651 1 0.110 284512.0
1648 1649 1 0.098 462750.4
1654 1655 1 0.135 402500.8
1655 1656 1 0.137 402500.8
1656 1657 1 0.147 319657.6
1656 1661 1 0.101 363171.2
1657 1658 1 0.143 267776.0
1657 1659 1 0.110 284512.0
1657 1660 1 0.110 284512.0
1663 1664 1 0.135 402500.8
1664 1665 1 0.137 402500.8
1665 1666 1 0.147 319657.6
1665 1670 1 0.101 363171.2
1666 1667 1 0.143 267776.0
1666 1668 1 0.110 284512.0
1666 1669 1 0.110 284512.0
1672 1673 1 0.135 402500.8
1673 1674 1 0.137 402500.8
1674 1675 1 0.147 319657.6
1674 1678 1 0.101 363171.2
1675 1676 1 0.110 284512.0
1675 1677 1 0.110 284512.0
1680 1681 1 0.135 402500.8
1681 1682 1 0.137 402500.8
1682 1683 1 0.147 319657.6
1682 1687 1 0.101 363171.2
1683 1684 1 0.143 267776.0
1683 1685 1 0.110 284512.0
1683 1686 1 0.110 284512.0
1689 1690 1 0.135 402500.8
1690 1691 1 0.137 402500.8
1691 1692 1 0.147 319657.6
1691 1696 1 0.101 363171.2
1692 1693 1 0.143 267776.0
1692 1694 1 0.110 284512.0
1692 1695 1 0.110 284512.0
1698 1699 1 0.135 402500.8
1699 1700 1 0.137 402500.8
1700 1701 1 0.147 319657.6
1700 1704 1 0.101 363171.2
1701 1702 1 0.110 284512.0
1701 1703 1 0.110 284512.0
1706 1707 1 0.135 402500.8
1707 1708 1 0.137 402500.8
1708 1709 1 0.147 319657.6
1708 1712 1 0.101 363171.2
1709 1710 1 0.110 284512.0
1709 1711 1 0.110 284512.0
1714 1715 1 0.135 402500.8
1715 1716 1 0.137 402500.8
1716 1717 1 0.147 319657.6
1716 1721 1 0.101 363171.2
1717 1718 1 0.143 267776.0
1717 1719 1 0.110 284512.0
1717 1720 1 0.110 284512.0
1723 1724 1 0.135 402500.8
1724 1725 1 0.137 402500.8
1725 1726 1 0.147 319657.6
1725 1730 1 0.101 363171.2
1726 1727 1 0.143 267776.0
1726 1728 1 0.110 284512.0
1726 1729 1 0.110 284512.0
1732 1733 1 0.135 402500.8
1733 1734 1 0.137 402500.8
1734 1735 1 0.147 319657.6
1734 1739 1 0.101 363171.2
1735 1736 1 0.143 267776.0
1735 1737 1 0.110 284512.0
1735 1738 1 0.110 284512.0
1741 1742 1 0.135 402500.8
1742 1743 1 0.137 402500.8
1743 1744 1 0.147 319657.6
1743 1748 1 0.101 363171.2
1744 1745 1 0.143 267776.0
1744 1746 1 0.110 284512.0
1744 1747 1 0.110 284512.0
1750 1751 1 0.135 402500.8
1751 1752 1 0.137 402500.8
1752 1753 1 0.147 319657.6
1752 1757 1 0.101 363171.2
1753 1754 1 0.143 267776.0
1753 1755 1 0.110 284512.0
1753 1756 1 0.110 284512.0
1759 1760 1 0.135 402500.8
1760 1761 1 0.137 402500.8
1761 1762 1 0.147 319657.6
1761 1767 1 0.101 363171.2
1762 1763 1 0.143 267776.0
1762 1765 1 0.110 284512.0
1762 1766 1 0.110 284512.0
1763 1764 1 0.097 462750.4
1769 1770 1 0.135 402500.8
1770 1771 1 0.137 402500.8
1771 1772 1 0.147 319657.6
1771 1776 1 0.101 363171.2
1772 1773 1 0.143 267776.0
1772 1774 1 0.110 284512.0
1772 1775 1 0.110 284512.0
1778 1779 1 0.135 402500.8
1779 1780 1 0.137 402500.8
1780 1781 1 0.147 319657.6
1780 1785 1 0.101 363171.2
1781 1782 1 0.143 267776.0
1781 1783 1 0.110 284512.0
1781 1784 1 0.110 284512.0
1787 1788 1 0.135 402500.8
1788 1789 1 0.137 402500.8
1789 1790 1 0.147 319657.6
1789 1794 1 0.101 363171.2
1790 1791 1 0.143 267776.0
1790 1792 1 0.110 284512.0
1790 1793 1 0.110 284512.0
1796 1797 1 0.135 402500.8
1797 1798 1 0.137 402500.8
1798 1799 1 0.147 319657.6
1798 1803 1 0.101 363171.2
1799 1800 1 0.143 267776.0
1799 1801 1 0.110 284512.0
1799 1802 1 0.110 284512.0
1805 1806 1 0.135 402500.8
1806 1807 1 0.137 402500.8
1807 1808 1 0.147 319657.6
1807 1812 1 0.101 363171.2
1808 1809 1 0.143 267776.0
1808 1810 1 0.110 284512.0
1808 1811 1 0.110 284512.0
1814 1815 1 0.135 402500.8
1815 1816 1 0.137 402500.8
1816 1817 1 0.147 319657.6
1816 1821 1 0.101 363171.2
1817 1818 1 0.143 267776.0
1817 1819 1 0.110 284512.0
1817 1820 1 0.110 284512.0
1823 1824 1 0.135 402500.8
1824 1825 1 0.137 402500.8
1825 1826 1 0.147 319657.6
1825 1830 1 0.101 363171.2
1826 1827 1 0.143 267776.0
1826 1828 1 0.110 284512.0
1826 1829 1 0.110 284512.0
1832 1833 1 0.135 402500.8
1833 1834 1 0.137 402500.8
1834 1835 1 0.147 319657.6
1834 1840 1 0.101 363171.2
1835 1836 1 0.143 267776.0
1835 1838 1 0.110 284512.0
1835 1839 1 0.110 284512.0
1836 1837 1 0.098 462750.4
1842 1843 1 0.135 402500.8
1843 1844 1 0.137 402500.8
1844 1845 1 0.147 319657.6
1844 1849 1 0.101 363171.2
1845 1846 1 0.143 267776.0
1845 1847 1 0.110 284512.0
1845 1848 1 0.110 284512.0
1851 1852 1 0.135 402500.8
1852 1853 1 0.137 402500.8
1853 1854 1 0.147 319657.6
1853 1857 1 0.101 363171.2
1854 1855 1 0.110 284512.0
1854 1856 1 0.110 284512.0
1859 1860 1 0.135 402500.8
1860 1861 1 0.137 402500.8
1861 1862 1 0.147 319657.6
1861 1866 1 0.101 363171.2
1862 1863 1 0.143 267776.0
1862 1864 1 0.110 284512.0
1862 1865 1 0.110 284512.0
1868 1869 1 0.135 402500.8
1869 1870 1 0.137 402500.8
1870 1871 1 0.147 319657.6
1870 1875 1 0.101 363171.2
1871 1872 1 0.143 267776.0
1871 1873 1 0.110 284512.0
1871 1874 1 0.110 284512.0
1877 1878 1 0.135 402500.8
1878 1879 1 0.137 402500.8
1879 1880 1 0.147 319657.6
1879 1884 1 0.101 363171.2
1880 1881 1 0.143 267776.0
1880 1882 1 0.110 284512.0
1880 1883 1 0.110 284512.0
1886 1887 1 0.135 402500.8
1887 1888 1 0.137 402500.8
1888 1889 1 0.147 319657.6
1888 1893 1 0.101 363171.2
1889 1890 1 0.143 267776.0
1889 1891 1 0.110 284512.0
1889 1892 1 0.110 284512.0
1895 1896 1 0.135 402500.8
1896 1897 1 0.137 402500.8
1897 1898 1 0.147 319657.6
1897 1902 1 0.101 363171.2
1898 1899 1 0.143 267776.0
1898 1900 1 0.110 284512.0
1898 1901 1 0.110 284512.0
1904 1905 1 0.135 402500.8
1905 1906 1 0.137 402500.8
1906 1907 1 0.147 319657.6
1906 1910 1 0.101 363171.2
1907 1908 1 0.110 284512.0
1907 1909 1 0.110 284512.0
1912 1913 1 0.135 402500.8
1913 1914 1 0.137 402500.8
1914 1915 1 0.147 319657.6
1914 1919 1 0.101 363171.2
1915 1916 1 0.143 267776.0
1915 1917 1 0.110 284512.0
1915 1918 1 0.110 284512.0
1921 1922 1 0.135 402500.8
1922 1923 1 0.137 402500.8
1923 1924 1 0.147 319657.6
1923 1927 1 0.101 363171.2
1924 1925 1 0.110 284512.0
1924 1926 1 0.110 284512.0
1929 1930 1 0.135 402500.8
1930 1931 1 0.137 402500.8
1931 1932 1 0.147 319657.6
1931 1936 1 0.101 363171.2
1932 1933 1 0.143 267776.0
1932 1934 1 0.110 284512.0
1932 1935 1 0.110 284512.0
1938 1939 1 0.135 402500.8
1939 1940 1 0.137 402500.8
1940 1941 1 0.147 319657.6
1940 1945 1 0.101 363171.2
1941 1942 1 0.143 267776.0
1941 1943 1 0.110 284512.0
1941 1944 1 0.110 284512.0
1947 1948 1 0.135 402500.8
1948 1949 1 0.137 402500.8
1949 1950 1 0.147 319657.6
1949 1954 1 0.101 363171.2
1950 1951 1 0.143 267776.0
1950 1952 1 0.110 284512.0
1950 1953 1 0.110 284512.0
1956 1957 1 0.135 402500.8
1957 1958 1 0.137 402500.8
1958 1959 1 0.147 319657.6
1958 1963 1 0.101 363171.2
1959 1960 1 0.143 267776.0
1959 1961 1 0.110 284512.0
1959 1962 1 0.110 284512.0
1965 1966 1 0.135 402500.8
1966 1967 1 0.137 402500.8
1967 1968 1 0.147 319657.6
1967 1972 1 0.101 363171.2
1968 1969 1 0.143 267776.0
1968 1970 1 0.110 284512.0
1968 1971 1 0.110 284512.0
1974 1975 1 0.135 402500.8
1975 1976 1 0.137 402500.8
1976 1977 1 0.147 319657.6
1976 1981 1 0.101 363171.2
1977 1978 1 0.143 267776.0
1977 1979 1 0.110 284512.0
1977 1980 1 0.110 284512.0
1983 1984 1 0.135 402500.8
1984 1985 1 0.137 402500.8
1985 1986 1 0.147 319657.6
1985 1990 1 0.101 363171.2
1986 1987 1 0.143 267776.0
1986 1988 1 0.110 284512.0
1986 1989 1 0.110 284512.0
1992 1993 1 0.135 402500.8
1993 1994 1 0.137 402500.8
1994 1995 1 0.147 319657.6
1994 1999 1 0.101 363171.2
1995 1996 1 0.143 267776.0
1995 1997 1 0.110 284512.0
1995 1998 1 0.110 284512.0
2001 2002 1 0.135 402500.8
2002 2003 1 0.137 402500.8
2003 2004 1 0.147 319657.6
2003 2008 1 0.101 363171.2
2004 2005 1 0.143 267776.0
2004 2006 1 0.110 284512.0
2004 2007 1 0.110 284512.0
2010 2011 1 0.135 402500.8
2011 2012 1 0.137 402500.8
2012 2013 1 0.147 319657.6
2012 2017 1 0.101 363171.2
2013 2014 1 0.143 267776.0
2013 2015 1 0.110 284512.0
2013 2016 1 0.110 284512.0
2019 2020 1 0.135 402500.8
2020 2021 1 0.137 402500.8
2021 2022 1 0.147 319657.6
2021 2026 1 0.101 363171.2
2022 2023 1 0.143 267776.0
2022 2024 1 0.110 284512.0
2022 2025 1 0.110 284512.0
2028 2029 1 0.135 402500.8
2029 2030 1 0.137 402500.8
2030 2031 1 0.147 319657.6
2030 2035 1 0.101 363171.2
2031 2032 1 0.143 267776.0
2031 2033 1 0.110 284512.0
2031 2034 1 0.110 284512.0
2037 2038 1 0.135 402500.8
2038 2039 1 0.137 402500.8
2039 2040 1 0.147 319657.6
2039 2044 1 0.101 363171.2
2040 2041 1 0.143 267776.0
2040 2042 1 0.110 284512.0
2040 2043 1 0.110 284512.0
2046 2047 1 0.135 402500.8
2047 2048 1 0.137 402500.8
2048 2049 1 0.147 319657.6
2048 2053 1 0.101 363171.2
2049 2050 1 0.143 267776.0
2049 2051 1 0.110 284512.0
2049 2052 1 0.110 284512.0
2055 2056 1 0.135 402500.8
2056 2057 1 0.137 402500.8
2057 2058 1 0.147 319657.6
2057 2062 1 0.101 363171.2
2058 2059 1 0.143 267776.0
2058 2060 1 0.110 284512.0
2058 2061 1 0.110 284512.0
2064 2065 1 0.135 402500.8
2065 2066 1 0.137 402500.8
2066 2067 1 0.147 319657.6
2066 2071 1 0.101 363171.2
2067 2068 1 0.143 267776.0
2067 2069 1 0.110 284512.0
2067 2070 1 0.110 284512.0
2073 2074 1 0.135 402500.8
2074 2075 1 0.137 402500.8
2075 2076 1 0.147 319657.6
2075 2080 1 0.101 363171.2
2076 2077 1 0.143 267776.0
2076 2078 1 0.110 284512.0
2076 2079 1 0.110 284512.0
2082 2083 1 0.135 402500.8
2083 2084 1 0.137 402500.8
2084 2085 1 0.147 319657.6
2084 2088 1 0.101 363171.2
2085 2086 1 0.110 284512.0
2085 2087 1 0.110 284512.0
2090 2091 1 0.135 402500.8
2091 2092 1 0.137 402500.8
2092 2093 1 0.147 319657.6
2092 2097 1 0.101 363171.2
2093 2094 1 0.143 267776.0
2093 2095 1 0.110 284512.0
2093 2096 1 0.110 284512.0
2099 2100 1 0.135 402500.8
2100 2101 1 0.137 402500.8
2101 2102 1 0.147 319657.6
2101 2105 1 0.101 363171.2
2102 2103 1 0.110 284512.0
2102 2104 1 0.110 284512.0
2107 2108 1 0.135 402500.8
2108 2109 1 0.137 402500.8
2109 2110 1 0.147 319657.6
2109 2113 1 0.101 363171.2
2110 2111 1 0.110 284512.0
2110 2112 1 0.110 284512.0
2115 2116 1 0.135 402500.8
2116 2117 1 0.137 402500.8
2117 2118 1 0.147 319657.6
2117 2122 1 0.101 363171.2
2118 2119 1 0.143 267776.0
2118 2120 1 0.110 284512.0
2118 2121 1 0.110 284512.0
2124 2125 1 0.135 402500.8
2125 2126 1 0.137 402500.8
2126 2127 1 0.147 319657.6
2126 2131 1 0.101 363171.2
2127 2128 1 0.143 267776.0
2127 2129 1 0.110 284512.0
2127 2130 1 0.110 284512.0
2133 2134 1 0.135 402500.8
2134 2135 1 0.137 402500.8
2135 2136 1 0.147 319657.6
2135 2140 1 0.101 363171.2
2136 2137 1 0.143 267776.0
2136 2138 1 0.110 284512.0
2136 2139 1 0.110 284512.0
2142 2143 1 0.135 402500.8
2143 2144 1 0.137 402500.8
2144 2145 1 0.147 319657.6
2144 2149 1 0.101 363171.2
2145 2146 1 0.143 267776.0
2145 2147 1 0.110 284512.0
2145 2148 1 0.110 284512.0
2151 2152 1 0.135 402500.8
2152 2153 1 0.137 402500.8
2153 2154 1 0.147 319657.6
2153 2158 1 0.101 363171.2
2154 2155 1 0.143 267776.0
2154 2156 1 0.110 284512.0
2154 2157 1 0.110 284512.0
2160 2161 1 0.135 402500.8
2161 2162 1 0.137 402500.8
2162 2163 1 0.147 319657.6
2162 2167 1 0.101 363171.2
2163 2164 1 0.143 267776.0
2163 2165 1 0.110 284512.0
2163 2166 1 0.110 284512.0
2169 2170 1 0.135 402500.8
2170 2171 1 0.137 402500.8
2171 2172 1 0.147 319657.6
2171 2176 1 0.101 363171.2
2172 2173 1 0.143 267776.0
2172 2174 1 0.110 284512.0
2172 2175 1 0.110 284512.0
2178 2179 1 0.135 402500.8
2179 2180 1 0.137 402500.8
2180 2181 1 0.147 319657.6
2180 2186 1 0.101 363171.2
2181 2182 1 0.143 267776.0
2181 2184 1 0.110 284512.0
2181 2185 1 0.110 284512.0
2182 2183 1 0.098 462750.4
2188 2189 1 0.135 402500.8
2189 2190 1 0.137 402500.8
2190 2191 1 0.147 319657.6
2190 2195 1 0.101 363171.2
2191 2192 1 0.143 267776.0
2191 2193 1 0.110 284512.0
2191 2194 1 0.110 284512.0
2197 2198 1 0.135 402500.8
2198 2199 1 0.137 402500.8
2199 2200 1 0.147 319657.6
2199 2204 1 0.101 363171.2
2200 2201 1 0.143 267776.0
2200 2202 1 0.110 284512.0
2200 2203 1 0.110 284512.0
2206 2207 1 0.135 402500.8
2207 2208 1 0.137 402500.8
2208 2209 1 0.147 319657.6
2208 2213 1 0.101 363171.2
2209 2210 1 0.143 267776.0
2209 2211 1 0.110 284512.0
2209 2212 1 0.110 284512.0
2215 2216 1 0.135 402500.8
2216 2217 1 0.137 402500.8
2217 2218 1 0.147 319657.6
2217 2223 1 0.101 363171.2
2218 2219 1 0.143 267776.0
2218 2221 1 0.110 284512.0
2218 2222 1 0.110 284512.0
2219 2220 1 0.097 462750.4
2225 2226 1 0.135 402500.8
2226 2227 1 0.137 402500.8
2227 2228 1 0.147 319657.6
2227 2232 1 0.101 363171.2
2228 2229 1 0.143 267776.0
2228 2230 1 0.110 284512.0
2228 2231 1 0.110 284512.0
2234 2235 1 0.135 402500.8
2235 2236 1 0.137 402500.8
2236 2237 1 0.147 319657.6
2236 2241 1 0.101 363171.2
2237 2238 1 0.143 267776.0
2237 2239 1 0.110 284512.0
2237 2240 1 0.110 284512.0
2243 2244 1 0.135 402500.8
2244 2245 1 0.137 402500.8
2245 2246 1 0.147 319657.6
2245 2250 1 0.101 363171.2
2246 2247 1 0.143 267776.0
2246 2248 1 0.110 284512.0
2246 2249 1 0.110 284512.0
2252 2253 1 0.135 402500.8
2253 2254 1 0.137 402500.8
2254 2255 1 0.147 319657.6
2254 2259 1 0.101 363171.2
2255 2256 1 0.143 267776.0
2255 2257 1 0.110 284512.0
2255 2258 1 0.110 284512.0
2261 2262 1 0.135 402500.8
2262 2263 1 0.137 402500.8
2263 2264 1 0.147 319657.6
2263 2268 1 0.101 363171.2
2264 2265 1 0.143 267776.0
2264 2266 1 0.110 284512.0
2264 2267 1 0.110 284512.0
2270 2271 1 0.135 402500.8
2271 2272 1 0.137 402500.8
2272 2273 1 0.147 319657.6
2272 2277 1 0.101 363171.2
2273 2274 1 0.143 267776.0
2273 2275 1 0.110 284512.0
2273 2276 1 0.110 284512.0
2279 2280 1 0.135 402500.8
2280 2281 1 0.137 402500.8
2281 2282 1 0.147 319657.6
2281 2286 1 0.101 363171.2
2282 2283 1 0.143 267776.0
2282 2284 1 0.110 284512.0
2282 2285 1 0.110 284512.0
2288 2289 1 0.135 402500.8
2289 2290 1 0.137 402500.8
2290 2291 1 0.147 319657.6
2290 2295 1 0.101 363171.2
2291 2292 1 0.143 267776.0
2291 2293 1 0.110 284512.0
2291 2294 1 0.110 284512.0
2297 2298 1 0.135 402500.8
2298 2299 1 0.137 402500.8
2299 2300 1 0.147 319657.6
2299 2304 1 0.101 363171.2
2300 2301 1 0.143 267776.0
2300 2302 1 0.110 284512.0
2300 2303 1 0.110 284512.0
2306 2307 1 0.135 402500.8
2307 2308 1 0.137 402500.8
2308 2309 1 0.147 319657.6
2308 2313 1 0.101 363171.2
2309 2310 1 0.143 267776.0
2309 2311 1 0.110 284512.0
2309 2312 1 0.110 284512.0
2315 2316 1 0.135 402500.8
2316 2317 1 0.137 402500.8
2317 2318 1 0.147 319657.6
2317 2322 1 0.101 363171.2
2318 2319 1 0.143 267776.0
2318 2320 1 0.110 284512.0
2318 2321 1 0.110 284512.0
2324 2325 1 0.135 402500.8
2325 2326 1 0.137 402500.8
2326 2327 1 0.147 319657.6
2326 2331 1 0.101 363171.2
2327 2328 1 0.143 267776.0
2327 2329 1 0.110 284512.0
2327 2330 1 0.110 284512.0
2333 2334 1 0.135 402500.8
2334 2335 1 0.137 402500.8
2335 2336 1 0.147 319657.6
2335 2340 1 0.101 363171.2
2336 2337 1 0.143 267776.0
2336 2338 1 0.110 284512.0
2336 2339 1 0.110 284512.0
2342 2343 1 0.135 402500.8
2343 2344 1 0.137 402500.8
2344 2345 1 0.147 319657.6
2344 2349 1 0.101 363171.2
2345 2346 1 0.143 267776.0
2345 2347 1 0.110 284512.0
2345 2348 1 0.110 284512.0
2351 2352 1 0.135 402500.8
2352 2353 1 0.137 402500.8
2353 2354 1 0.147 319657.6
2353 2359 1 0.101 363171.2
2354 2355 1 0.143 267776.0
2354 2357 1 0.110 284512.0
2354 2358 1 0.110 284512.0
2355 2356 1 0.097 462750.4
2361 2362 1 0.135 402500.8
2362 2363 1 0.137 402500.8
2363 2364 1 0.147 319657.6
2363 2367 1 0.101 363171.2
2364 2365 1 0.110 284512.0
2364 2366 1 0.110 284512.0
2369 2370 1 0.135 402500.8
2370 2371 1 0.137 402500.8
2371 2372 1 0.147 319657.6
2371 2376 1 0.101 363171.2
2372 2373 1 0.143 267776.0
2372 2374 1 0.110 284512.0
2372 2375 1 0.110 284512.0
2378 2379 1 0.135 402500.8
2379 2380 1 0.137 402500.8
2380 2381 1 0.147 319657.6
2380 2385 1 0.101 363171.2
2381 2382 1 0.143 267776.0
2381 2383 1 0.110 284512.0
2381 2384 1 0.110 284512.0
2387 2388 1 0.135 402500.8
2388 2389 1 0.137 402500.8
2389 2390 1 0.147 319657.6
2389 2394 1 0.101 363171.2
2390 2391 1 0.143 267776.0
2390 2392 1 0.110 284512.0
2390 2393 1 0.110 284512.0
2396 2397 1 0.135 402500.8
2397 2398 1 0.137 402500.8
2398 2399 1 0.147 319657.6
2398 2403 1 0.101 363171.2
2399 2400 1 0.143 267776.0
2399 2401 1 0.110 284512.0
2399 2402 1 0.110 284512.0
2405 2406 1 0.135 402500.8
2406 2407 1 0.137 402500.8
2407 2408 1 0.147 319657.6
2407 2412 1 0.101 363171.2
2408 2409 1 0.143 267776.0
2408 2410 1 0.110 284512.0
2408 2411 1 0.110 284512.0
2414 2415 1 0.135 402500.8
2415 2416 1 0.137 402500.8
2416 2417 1 0.147 319657.6
2416 2421 1 0.101 363171.2
2417 2418 1 0.143 267776.0
2417 2419 1 0.110 284512.0
2417 2420 1 0.110 284512.0
2423 2424 1 0.135 402500.8
2424 2425 1 0.137 402500.8
2425 2426 1 0.147 319657.6
2425 2429 1 0.101 363171.2
2426 2427 1 0.110 284512.0
2426 2428 1 0.110 284512.0
2431 2432 1 0.135 402500.8
2432 2433 1 0.137 402500.8
2433 2434 1 0.147 319657.6
2433 2438 1 0.101 363171.2
2434 2435 1 0.143 267776.0
2434 2436 1 0.110 284512.0
2434 2437 1 0.110 284512.0
2440 2441 1 0.135 402500.8
2441 2442 1 0.137 402500.8
2442 2443 1 0.147 319657.6
2442 2448 1 0.101 363171.2
2443 2444 1 0.143 267776.0
2443 2446 1 0.110 284512.0
2443 2447 1 0.110 284512.0
2444 2445 1 0.098 462750.4
2450 2451 1 0.135 402500.8
2451 2452 1 0.137 402500.8
2452 2453 1 0.147 319657.6
2452 2457 1 0.101 363171.2
2453 2454 1 0.143 267776.0
2453 2455 1 0.110 284512.0
2453 2456 1 0.110 284512.0
2459 2460 1 0.135 402500.8
2460 2461 1 0.137 402500.8
2461 2462 1 0.147 319657.6
2461 2466 1 0.101 363171.2
2462 2463 1 0.143 267776.0
2462 2464 1 0.110 284512.0
2462 2465 1 0.110 284512.0
2468 2469 1 0.135 402500.8
2469 2470 1 0.137 402500.8
2470 2471 1 0.147 319657.6
2470 2474 1 0.101 363171.2
2471 2472 1 0.110 284512.0
2471 2473 1 0.110 284512.0
2476 2477 1 0.135 402500.8
2477 2478 1 0.137 402500.8
2478 2479 1 0.147 319657.6
2478 2483 1 0.101 363171.2
2479 2480 1 0.143 267776.0
2479 2481 1 0.110 284512.0
2479 2482 1 0.110 284512.0
2485 2486 1 0.135 402500.8
2486 2487 1 0.137 402500.8
2487 2488 1 0.147 319657.6
2487 2492 1 0.101 363171.2
2488 2489 1 0.143 267776.0
2488 2490 1 0.110 284512.0
2488 2491 1 0.110 284512.0
2494 2495 1 0.135 402500.8
2495 2496 1 0.137 402500.8
2496 2497 1 0.147 319657.6
2496 2501 1 0.101 363171.2
2497 2498 1 0.143 267776.0
2497 2499 1 0.110 284512.0
2497 2500 1 0.110 284512.0
2503 2504 1 0.135 402500.8
2504 2505 1 0.137 402500.8
2505 2506 1 0.147 319657.6
2505 2510 1 0.101 363171.2
2506 2507 1 0.143 267776.0
2506 2508 1 0.110 284512.0
2506 2509 1 0.110 284512.0
2512 2513 1 0.135 402500.8
2513 2514 1 0.137 402500.8
2514 2515 1 0.147 319657.6
2514 2519 1 0.101 363171.2
2515 2516 1 0.143 267776.0
2515 2517 1 0.110 284512.0
2515 2518 1 0.110 284512.0
2521 2522 1 0.135 402500.8
2522 2523 1 0.137 402500.8
2523 2524 1 0.147 319657.6
2523 2528 1 0.101 363171.2
2524 2525 1 0.143 267776.0
2524 2526 1 0.110 284512.0
2524 2527 1 0.110 284512.0
2530 2531 1 0.135 402500.8
2531 2532 1 0.137 402500.8
2532 2533 1 0.147 319657.6
2532 2536 1 0.101 363171.2
2533 2534 1 0.110 284512.0
2533 2535 1 0.110 284512.0
2538 2539 1 0.135 402500.8
2539 2540 1 0.137 402500.8
2540 2541 1 0.147 319657.6
2540 2545 1 0.101 363171.2
2541 2542 1 0.143 267776.0
2541 2543 1 0.110 284512.0
2541 2544 1 0.110 284512.0
2547 2548 1 0.135 402500.8
2548 2549 1 0.137 402500.8
2549 2550 1 0.147 319657.6
2549 2554 1 0.101 363171.2
2550 2551 1 0.143 267776.0
2550 2552 1 0.110 284512.0
2550 2553 1 0.110 284512.0
2556 2557 1 0.135 402500.8
2557 2558 1 0.137 402500.8
2558 2559 1 0.147 319657.6
2558 2563 1 0.101 363171.2
2559 2560 1 0.143 267776.0
2559 2561 1 0.110 284512.0
2559 2562 1 0.110 284512.0
2565 2566 1 0.135 402500.8
2566 2567 1 0.137 402500.8
2567 2568 1 0.147 319657.6
2567 2572 1 0.101 363171.2
2568 2569 1 0.143 267776.0
2568 2570 1 0.110 284512.0
2568 2571 1 0.110 284512.0
2574 2575 1 0.135 402500.8
2575 2576 1 0.137 402500.8
2576 2577 1 0.147 319657.6
2576 2582 1 0.101 363171.2
2577 2578 1 0.143 267776.0
2577 2580 1 0.110 284512.0
2577 2581 1 0.110 284512.0
2578 2579 1 0.098 462750.4
2584 2585 1 0.135 402500.8
2585 2586 1 0.137 402500.8
2586 2587 1 0.147 319657.6
2586 2592 1 0.101 363171.2
2587 2588 1 0.143 267776.0
2587 2590 1 0.110 284512.0
2587 2591 1 0.110 284512.0
2588 2589 1 0.098 462750.4
2594 2595 1 0.135 402500.8
2595 2596 1 0.137 402500.8
2596 2597 1 0.147 319657.6
2596 2601 1 0.101 363171.2
2597 2598 1 0.143 267776.0
2597 2599 1 0.110 284512.0
2597 2600 1 0.110 284512.0
2603 2604 1 0.135 402500.8
2604 2605 1 0.137 402500.8
2605 2606 1 0.147 319657.6
2605 2610 1 0.101 363171.2
2606 2607 1 0.143 267776.0
2606 2608 1 0.110 284512.0
2606 2609 1 0.110 284512.0
2612 2613 1 0.135 402500.8
2613 2614 1 0.137 402500.8
2614 2615 1 0.147 319657.6
2614 2619 1 0.101 363171.2
2615 2616 1 0.143 267776.0
2615 2617 1 0.110 284512.0
2615 2618 1 0.110 284512.0
2621 2622 1 0.135 402500.8
2622 2623 1 0.137 402500.8
2623 2624 1 0.147 319657.6
2623 2628 1 0.101 363171.2
2624 2625 1 0.143 267776.0
2624 2626 1 0.110 284512.0
2624 2627 1 0.110 284512.0
2630 2631 1 0.135 402500.8
2631 2632 1 0.137 402500.8
2632 2633 1 0.147 319657.6
2632 2636 1 0.101 363171.2
2633 2634 1 0.110 284512.0
2633 2635 1 0.110 284512.0
2638 2639 1 0.135 402500.8
2639 2640 1 0.137 402500.8
2640 2641 1 0.147 319657.6
2640 2645 1 0.101 363171.2
2641 2642 1 0.143 267776.0
2641 2643 1 0.110 284512.0
2641 2644 1 0.110 284512.0
2647 2648 1 0.135 402500.8
2648 2649 1 0.137 402500.8
2649 2650 1 0.147 319657.6
2649 2654 1 0.101 363171.2
2650 2651 1 0.143 267776.0
2650 2652 1 0.110 284512.0
2650 2653 1 0.110 284512.0
2656 2657 1 0.135 402500.8
2657 2658 1 0.137 402500.8
2658 2659 1 0.147 319657.6
2658 2663 1 0.101 363171.2
2659 2660 1 0.143 267776.0
2659 2661 1 0.110 284512.0
2659 2662 1 0.110 284512.0
2665 2666 1 0.135 402500.8
2666 2667 1 0.137 402500.8
2667 2668 1 0.147 319657.6
2667 2672 1 0.101 363171.2
2668 2669 1 0.143 267776.0
2668 2670 1 0.110 284512.0
2668 2671 1 0.110 284512.0
2674 2675 1 0.135 402500.8
2675 2676 1 0.137 402500.8
2676 2677 1 0.147 319657.6
2676 2682 1 0.101 363171.2
2677 2678 1 0.143 267776.0
2677 2680 1 0.110 284512.0
2677 2681 1 0.110 284512.0
2678 2679 1 0.097 462750.4
2684 2685 1 0.135 402500.8
2685 2686 1 0.137 402500.8
2686 2687 1 0.147 319657.6
2686 2691 1 0.101 363171.2
2687 2688 1 0.143 267776.0
2687 2689 1 0.110 284512.0
2687 2690 1 0.110 284512.0
2693 2694 1 0.135 402500.8
2694 2695 1 0.137 402500.8
2695 2696 1 0.147 319657.6
2695 2699 1 0.101 363171.2
2696 2697 1 0.110 284512.0
2696 2698 1 0.110 284512.0
2701 2702 1 0.135 402500.8
2702 2703 1 0.137 402500.8
2703 2704 1 0.147 319657.6
2703 2707 1 0.101 363171.2
2704 2705 1 0.110 284512.0
2704 2706 1 0.110 284512.0
2709 2710 1 0.135 402500.8
2710 2711 1 0.137 402500.8
2711 2712 1 0.147 319657.6
2711 2716 1 0.101 363171.2
2712 2713 1 0.143 267776.0
2712 2714 1 0.110 284512.0
2712 2715 1 0.110 284512.0
2718 2719 1 0.135 402500.8
2719 2720 1 0.137 402500.8
2720 2721 1 0.147 319657.6
2720 2725 1 0.101 363171.2
2721 2722 1 0.143 267776.0
2721 2723 1 0.110 284512.0
2721 2724 1 0.110 284512.0
2727 2728 1 0.135 402500.8
2728 2729 1 0.137 402500.8
2729 2730 1 0.147 319657.6
2729 2733 1 0.101 363171.2
2730 2731 1 0.110 284512.0
2730 2732 1 0.110 284512.0
2735 2736 1 0.135 402500.8
2736 2737 1 0.137 402500.8
2737 2738 1 0.147 319657.6
2737 2742 1 0.101 363171.2
2738 2739 1 0.143 267776.0
2738 2740 1 0.110 284512.0
2738 2741 1 0.110 284512.0
2744 2745 1 0.135 402500.8
2745 2746 1 0.137 402500.8
2746 2747 1 0.147 319657.6
2746 2751 1 0.101 363171.2
2747 2748 1 0.143 267776.0
2747 2749 1 0.110 284512.0
2747 2750 1 0.110 284512.0
2753 2754 1 0.135 402500.8
2754 2755 1 0.137 402500.8
2755 2756 1 0.147 319657.6
2755 2761 1 0.101 363171.2
2756 2757 1 0.143 267776.0
2756 2759 1 0.110 284512.0
2756 2760 1 0.110 284512.0
2757 2758 1 0.097 462750.4
2763 2764 1 0.135 402500.8
2764 2765 1 0.137 402500.8
2765 2766 1 0.147 319657.6
2765 2770 1 0.101 363171.2
2766 2767 1 0.143 267776.0
2766 2768 1 0.110 284512.0
2766 2769 1 0.110 284512.0
2772 2773 1 0.135 402500.8
2773 2774 1 0.137 402500.8
2774 2775 1 0.147 319657.6
2774 2779 1 0.101 363171.2
2775 2776 1 0.143 267776.0
2775 2777 1 0.110 284512.0
2775 2778 1 0.110 284512.0
2781 2782 1 0.135 402500.8
2782 2783 1 0.137 402500.8
2783 2784 1 0.147 319657.6
2783 2787 1 0.101 363171.2
2784 2785 1 0.110 284512.0
2784 2786 1 0.110 284512.0
2789 2790 1 0.135 402500.8
2790 2791 1 0.137 402500.8
2791 2792 1 0.147 319657.6
2791 2796 1 0.101 363171.2
2792 2793 1 0.143 267776.0
2792 2794 1 0.110 284512.0
2792 2795 1 0.110 284512.0
2798 2799 1 0.135 402500.8
2799 2800 1 0.137 402500.8
2800 2801 1 0.147 319657.6
2800 2805 1 0.101 363171.2
2801 2802 1 0.143 267776.0
2801 2803 1 0.110 284512.0
2801 2804 1 0.110 284512.0
2807 2808 1 0.135 402500.8
2808 2809 1 0.137 402500.8
2809 2810 1 0.147 319657.6
2809 2814 1 0.101 363171.2
2810 2811 1 0.143 267776.0
2810 2812 1 0.110 284512.0
2810 2813 1 0.110 284512.0
2816 2817 1 0.135 402500.8
2817 2818 1 0.137 402500.8
2818 2819 1 0.147 319657.6
2818 2823 1 0.101 363171.2
2819 2820 1 0.143 267776.0
2819 2821 1 0.110 284512.0
2819 2822 1 0.110 284512.0
2825 2826 1 0.135 402500.8
2826 2827 1 0.137 402500.8
2827 2828 1 0.147 319657.6
2827 2831 1 0.101 363171.2
2828 2829 1 0.110 284512.0
2828 2830 1 0.110 284512.0
2833 2834 1 0.135 402500.8
2834 2835 1 0.137 402500.8
2835 2836 1 0.147 319657.6
2835 2840 1 0.101 363171.2
2836 2837 1 0.143 267776.0
2836 2838 1 0.110 284512.0
2836 2839 1 0.110 284512.0
2842 2843 1 0.135 402500.8
2843 2844 1 0.137 402500.8
2844 2845 1 0.147 319657.6
2844 2849 1 0.101 363171.2
2845 2846 1 0.143 267776.0
2845 2847 1 0.110 284512.0
2845 2848 1 0.110 284512.0
2851 2852 1 0.135 402500.8
2852 2853 1 0.137 402500.8
2853 2854 1 0.147 319657.6
2853 2857 1 0.101 363171.2
2854 2855 1 0.110 284512.0
2854 2856 1 0.110 284512.0
2859 2860 1 0.135 402500.8
2860 2861 1 0.137 402500.8
2861 2862 1 0.147 319657.6
2861 2866 1 0.101 363171.2
2862 2863 1 0.143 267776.0
2862 2864 1 0.110 284512.0
2862 2865 1 0.110 284512.0
2868 2869 1 0.135 402500.8
2869 2870 1 0.137 402500.8
2870 2871 1 0.147 319657.6
2870 2874 1 0.101 363171.2
2871 2872 1 0.110 284512.0
2871 2873 1 0.110 284512.0
2876 2877 1 0.135 402500.8
2877 2878 1 0.137 402500.8
2878 2879 1 0.147 319657.6
2878 2882 1 0.101 363171.2
2879 2880 1 0.110 284512.0
2879 2881 1 0.110 284512.0
2884 2885 1 0.135 402500.8
2885 2886 1 0.137 402500.8
2886 2887 1 0.147 319657.6
2886 2890 1 0.101 363171.2
2887 2888 1 0.110 284512.0
2887 2889 1 0.110 284512.0
2892 2893 1 0.135 402500.8
2893 2894 1 0.137 402500.8
2894 2895 1 0.147 319657.6
2894 2899 1 0.101 363171.2
2895 2896 1 0.143 267776.0
2895 2897 1 0.110 284512.0
2895 2898 1 0.110 284512.0
2901 2902 1 0.135 402500.8
2902 2903 1 0.137 402500.8
2903 2904 1 0.147 319657.6
2903 2907 1 0.101 363171.2
2904 2905 1 0.110 284512.0
2904 2906 1 0.110 284512.0
2909 2910 1 0.135 402500.8
2910 2911 1 0.137 402500.8
2911 2912 1 0.147 319657.6
2911 2916 1 0.101 363171.2
2912 2913 1 0.143 267776.0
2912 2914 1 0.110 284512.0
2912 2915 1 0.110 284512.0
2918 2919 1 0.135 402500.8
2919 2920 1 0.137 402500.8
2920 2921 1 0.147 319657.6
2920 2925 1 0.101 363171.2
2921 2922 1 0.143 267776.0
2921 2923 1 0.110 284512.0
2921 2924 1 0.110 284512.0
2927 2928 1 0.135 402500.8
2928 2929 1 0.137 402500.8
2929 2930 1 0.147 319657.6
2929 2934 1 0.101 363171.2
2930 2931 1 0.143 267776.0
2930 2932 1 0.110 284512.0
2930 2933 1 0.110 284512.0
2936 2937 1 0.135 402500.8
2937 2938 1 0.137 402500.8
2938 2939 1 0.147 319657.6
2938 2943 1 0.101 363171.2
2939 2940 1 0.143 267776.0
2939 2941 1 0.110 284512.0
2939 2942 1 0.110 284512.0
2945 2946 1 0.135 402500.8
2946 2947 1 0.137 402500.8
2947 2948 1 0.147 319657.6
2947 2952 1 0.101 363171.2
2948 2949 1 0.143 267776.0
2948 2950 1 0.110 284512.0
2948 2951 1 0.110 284512.0
2954 2955 1 0.135 402500.8
2955 2956 1 0.137 402500.8
2956 2957 1 0.147 319657.6
2956 2961 1 0.101 363171.2
2957 2958 1 0.143 267776.0
2957 2959 1 0.110 284512.0
2957 2960 1 0.110 284512.0
2963 2964 1 0.135 402500.8
2964 2965 1 0.137 402500.8
2965 2966 1 0.147 319657.6
2965 2970 1 0.101 363171.2
2966 2967 1 0.143 267776.0
2966 2968 1 0.110 284512.0
2966 2969 1 0.110 284512.0
2972 2973 1 0.135 402500.8
2973 2974 1 0.137 402500.8
2974 2975 1 0.147 319657.6
2974 2979 1 0.101 363171.2
2975 2976 1 0.143 267776.0
2975 2977 1 0.110 284512.0
2975 2978 1 0.110 284512.0
2981 2982 1 0.135 402500.8
2982 2983 1 0.137 402500.8
2983 2984 1 0.147 319657.6
2983 2988 1 0.101 363171.2
2984 2985 1 0.143 267776.0
2984 2986 1 0.110 284512.0
2984 2987 1 0.110 284512.0
2990 2991 1 0.135 402500.8
2991 2992 1 0.137 402500.8
2992 2993 1 0.147 319657.6
2992 2997 1 0.101 363171.2
2993 2994 1 0.143 267776.0
2993 2995 1 0.110 284512.0
2993 2996 1 0.110 284512.0
2999 3000 1 0.135 402500.8
3000 3001 1 0.137 402500.8
3001 3002 1 0.147 319657.6
3001 3006 1 0.101 363171.2
3002 3003 1 0.143 267776.0
3002 3004 1 0.110 284512.0
3002 3005 1 0.110 284512.0
3008 3009 1 0.135 402500.8
3009 3010 1 0.137 402500.8
3010 3011 1 0.147 319657.6
3010 3014 1 0.101 363171.2
3011 3012 1 0.110 284512.0
3011 3013 1 0.110 284512.0
3016 3017 1 0.135 402500.8
3017 3018 1 0.137 402500.8
3018 3019 1 0.147 319657.6
3018 3022 1 0.101 363171.2
3019 3020 1 0.110 284512.0
3019 3021 1 0.110 284512.0
3024 3025 1 0.135 402500.8
3025 3026 1 0.137 402500.8
3026 3027 1 0.147 319657.6
3026 3030 1 0.101 363171.2
3027 3028 1 0.110 284512.0
3027 3029 1 0.110 284512.0
3032 3033 1 0.135 402500.8
3033 3034 1 0.137 402500.8
3034 3035 1 0.147 319657.6
3034 3039 1 0.101 363171.2
3035 3036 1 0.143 267776.0
3035 3037 1 0.110 284512.0
3035 3038 1 0.110 284512.0
3041 3042 1 0.135 402500.8
3042 3043 1 0.137 402500.8
3043 3044 1 0.147 319657.6
3043 3047 1 0.101 363171.2
3044 3045 1 0.110 284512.0
3044 3046 1 0.110 284512.0
3049 3050 1 0.135 402500.8
3050 3051 1 0.137 402500.8
3051 3052 1 0.147 319657.6
3051 3055 1 0.101 363171.2
3052 3053 1 0.110 284512.0
3052 3054 1 0.110 284512.0
3057 3058 1 0.135 402500.8
3058 3059 1 0.137 402500.8
3059 3060 1 0.147 319657.6
3059 3064 1 0.101 363171.2
3060 3061 1 0.143 267776.0
3060 3062 1 0.110 284512.0
3060 3063 1 0.110 284512.0
3066 3067 1 0.135 402500.8
3067 3068 1 0.137 402500.8
3068 3069 1 0.147 319657.6
3068 3073 1 0.101 363171.2
3069 3070 1 0.143 267776.0
3069 3071 1 0.110 284512.0
3069 3072 1 0.110 284512.0
3075 3076 1 0.135 402500.8
3076 3077 1 0.137 402500.8
3077 3078 1 0.147 319657.6
3077 3082 1 0.101 363171.2
3078 3079 1 0.143 267776.0
3078 3080 1 0.110 284512.0
3078 3081 1 0.110 284512.0
3084 3085 1 0.135 402500.8
3085 3086 1 0.137 402500.8
3086 3087 1 0.147 319657.6
3086 3092 1 0.101 363171.2
3087 3088 1 0.143 267776.0
3087 3090 1 0.110 284512.0
3087 3091 1 0.110 284512.0
3088 3089 1 0.098 462750.4
3094 3095 1 0.135 402500.8
3095 3096 1 0.137 402500.8
3096 3097 1 0.147 319657.6
3096 3101 1 0.101 363171.2
3097 3098 1 0.143 267776.0
3097 3099 1 0.110 284512.0
3097 3100 1 0.110 284512.0
3103 3104 1 0.135 402500.8
3104 3105 1 0.137 402500.8
3105 3106 1 0.147 319657.6
3105 3109 1 0.101 363171.2
3106 3107 1 0.110 284512.0
3106 3108 1 0.110 284512.0
3111 3112 1 0.135 402500.8
3112 3113 1 0.137 402500.8
3113 3114 1 0.147 319657.6
3113 3118 1 0.101 363171.2
3114 3115 1 0.143 267776.0
3114 3116 1 0.110 284512.0
3114 3117 1 0.110 284512.0
3120 3121 1 0.135 402500.8
3121 3122 1 0.137 402500.8
3122 3123 1 0.147 319657.6
3122 3127 1 0.101 363171.2
3123 3124 1 0.143 267776.0
3123 3125 1 0.110 284512.0
3123 3126 1 0.110 284512.0
3129 3130 1 0.135 402500.8
3130 3131 1 0.137 402500.8
3131 3132 1 0.147 319657.6
3131 3136 1 0.101 363171.2
3132 3133 1 0.143 267776.0
3132 3134 1 0.110 284512.0
3132 3135 1 0.110 284512.0
3138 3139 1 0.135 402500.8
3139 3140 1 0.137 402500.8
3140 3141 1 0.147 319657.6
3140 3144 1 0.101 363171.2
3141 3142 1 0.110 284512.0
3141 3143 1 0.110 284512.0
3146 3147 1 0.135 402500.8
3147 3148 1 0.137 402500.8
3148 3149 1 0.147 319657.6
3148 3152 1 0.101 363171.2
3149 3150 1 0.110 284512.0
3149 3151 1 0.110 284512.0
3154 3155 1 0.135 402500.8
3155 3156 1 0.137 402500.8
3156 3157 1 0.147 319657.6
3156 3160 1 0.101 363171.2
3157 3158 1 0.110 284512.0
3157 3159 1 0.110 284512.0
3162 3163 1 0.135 402500.8
3163 3164 1 0.137 402500.8
3164 3165 1 0.147 319657.6
3164 3169 1 0.101 363171.2
3165 3166 1 0.143 267776.0
3165 3167 1 0.110 284512.0
3165 3168 1 0.110 284512.0
3171 3172 1 0.135 402500.8
3172 3173 1 0.137 402500.8
3173 3174 1 0.147 319657.6
3173 3177 1 0.101 363171.2
3174 3175 1 0.110 284512.0
3174 3176 1 0.110 284512.0
3179 3180 1 0.135 402500.8
3180 3181 1 0.137 402500.8
3181 3182 1 0.147 319657.6
3181 3186 1 0.101 363171.2
3182 3183 1 0.143 267776.0
3182 3184 1 0.110 284512.0
3182 3185 1 0.110 284512.0
3188 3189 1 0.135 402500.8
3189 3190 1 0.137 402500.8
3190 3191 1 0.147 319657.6
3190 3196 1 0.101 363171.2
3191 3192 1 0.143 267776.0
3191 3194 1 0.110 284512.0
3191 3195 1 0.110 284512.0
3192 3193 1 0.098 462750.4
3198 3199 1 0.135 402500.8
3199 3200 1 0.137 402500.8
3200 3201 1 0.147 319657.6
3200 3205 1 0.101 363171.2
3201 3202 1 0.143 267776.0
3201 3203 1 0.110 284512.0
3201 3204 1 0.110 284512.0
3207 3208 1 0.135 402500.8
3208 3209 1 0.137 402500.8
3209 3210 1 0.147 319657.6
3209 3213 1 0.101 363171.2
3210 3211 1 0.110 284512.0
3210 3212 1 0.110 284512.0
3215 3216 1 0.135 402500.8
3216 3217 1 0.137 402500.8
3217 3218 1 0.147 319657.6
3217 3222 1 0.101 363171.2
3218 3219 1 0.143 267776.0
3218 3220 1 0.110 284512.0
3218 3221 1 0.110 284512.0
3224 3225 1 0.135 402500.8
3225 3226 1 0.137 402500.8
3226 3227 1 0.147 319657.6
3226 3230 1 0.101 363171.2
3227 3228 1 0.110 284512.0
3227 3229 1 0.110 284512.0
3232 3233 1 0.135 402500.8
3233 3234 1 0.137 402500.8
3234 3235 1 0.147 319657.6
3234 3239 1 0.101 363171.2
3235 3236 1 0.143 267776.0
3235 3237 1 0.110 284512.0
3235 3238 1 0.110 284512.0
3241 3242 1 0.135 402500.8
3242 3243 1 0.137 402500.8
3243 3244 1 0.147 319657.6
3243 3249 1 0.101 363171.2
3244 3245 1 0.143 267776.0
3244 3247 1 0.110 284512.0
3244 3248 1 0.110 284512.0
3245 3246 1 0.098 462750.4
3251 3252 1 0.135 402500.8
3252 3253 1 0.137 402500.8
3253 3254 1 0.147 319657.6
3253 3258 1 0.101 363171.2
3254 3255 1 0.143 267776.0
3254 3256 1 0.110 284512.0
3254 3257 1 0.110 284512.0
3260 3261 1 0.135 402500.8
3261 3262 1 0.137 402500.8
3262 3263 1 0.147 319657.6
3262 3267 1 0.101 363171.2
3263 3264 1 0.143 267776.0
3263 3265 1 0.110 284512.0
3263 3266 1 0.110 284512.0
3269 3270 1 0.135 402500.8
3270 3271 1 0.137 402500.8
3271 3272 1 0.147 319657.6
3271 3276 1 0.101 363171.2
3272 3273 1 0.143 267776.0
3272 3274 1 0.110 284512.0
3272 3275 1 0.110 284512.0
3278 3279 1 0.135 402500.8
3279 3280 1 0.137 402500.8
3280 3281 1 0.147 319657.6
3280 3285 1 0.101 363171.2
3281 3282 1 0.143 267776.0
3281 3283 1 0.110 284512.0
3281 3284 1 0.110 284512.0
3287 3288 1 0.135 402500.8
3288 3289 1 0.137 402500.8
3289 3290 1 0.147 319657.6
3289 3294 1 0.101 363171.2
3290 3291 1 0.143 267776.0
3290 3292 1 0.110 284512.0
3290 3293 1 0.110 284512.0
3296 3297 1 0.135 402500.8
3297 3298 1 0.137 402500.8
3298 3299 1 0.147 319657.6
3298 3303 1 0.101 363171.2
3299 3300 1 0.143 267776.0
3299 3301 1 0.110 284512.0
3299 3302 1 0.110 284512.0
3305 3306 1 0.135 402500.8
3306 3307 1 0.137 402500.8
3307 3308 1 0.147 319657.6
3307 3312 1 0.101 363171.2
3308 3309 1 0.143 267776.0
3308 3310 1 0.110 284512.0
3308 3311 1 0.110 284512.0
3314 3315 1 0.135 402500.8
3315 3316 1 0.137 402500.8
3316 3317 1 0.147 319657.6
3316 3320 1 0.101 363171.2
3317 3318 1 0.110 284512.0
3317 3319 1 0.110 284512.0
3322 3323 1 0.135 402500.8
3323 3324 1 0.137 402500.8
3324 3325 1 0.147 319657.6
3324 3329 1 0.101 363171.2
3325 3326 1 0.143 267776.0
3325 3327 1 0.110 284512.0
3325 3328 1 0.110 284512.0
3331 3332 1 0.135 402500.8
3332 3333 1 0.137 402500.8
3333 3334 1 0.147 319657.6
3333 3338 1 0.101 363171.2
3334 3335 1 0.143 267776.0
3334 3336 1 0.110 284512.0
3334 3337 1 0.110 284512.0
3340 3341 1 0.135 402500.8
3341 3342 1 0.137 402500.8
3342 3343 1 0.147 319657.6
3342 3348 1 0.101 363171.2
3343 3344 1 0.143 267776.0
3343 3346 1 0.110 284512.0
3343 3347 1 0.110 284512.0
3344 3345 1 0.098 462750.4
3350 3351 1 0.135 402500.8
3351 3352 1 0.137 402500.8
3352 3353 1 0.147 319657.6
3352 3358 1 0.101 363171.2
3353 3354 1 0.143 267776.0
3353 3356 1 0.110 284512.0
3353 3357 1 0.110 284512.0
3354 3355 1 0.098 462750.4
3360 3361 1 0.135 402500.8
3361 3362 1 0.137 402500.8
3362 3363 1 0.147 319657.6
3362 3367 1 0.101 363171.2
3363 3364 1 0.143 267776.0
3363 3365 1 0.110 284512.0
3363 3366 1 0.110 284512.0
3369 3370 1 0.135 402500.8
3370 3371 1 0.137 402500.8
3371 3372 1 0.147 319657.6
3371 3376 1 0.101 363171.2
3372 3373 1 0.143 267776.0
3372 3374 1 0.110 284512.0
3372 3375 1 0.110 284512.0
3378 3379 1 0.135 402500.8
3379 3380 1 0.137 402500.8
3380 3381 1 0.147 319657.6
3380 3386 1 0.101 363171.2
3381 3382 1 0.143 267776.0
3381 3384 1 0.110 284512.0
3381 3385 1 0.110 284512.0
3382 3383 1 0.098 462750.4
3388 3389 1 0.135 402500.8
3389 3390 1 0.137 402500.8
3390 3391 1 0.147 319657.6
3390 3395 1 0.101 363171.2
3391 3392 1 0.143 267776.0
3391 3393 1 0.110 284512.0
3391 3394 1 0.110 284512.0
3397 3398 1 0.135 402500.8
3398 3399 1 0.137 402500.8
3399 3400 1 0.147 319657.6
3399 3404 1 0.101 363171.2
3400 3401 1 0.143 267776.0
3400 3402 1 0.110 284512.0
3400 3403 1 0.110 284512.0
3406 3407 1 0.135 402500.8
3407 3408 1 0.137 402500.8
3408 3409 1 0.147 319657.6
3408 3413 1 0.101 363171.2
3409 3410 1 0.143 267776.0
3409 3411 1 0.110 284512.0
3409 3412 1 0.110 284512.0
3415 3416 1 0.135 402500.8
3416 3417 1 0.137 402500.8
3417 3418 1 0.147 319657.6
3417 3422 1 0.101 363171.2
3418 3419 1 0.143 267776.0
3418 3420 1 0.110 284512.0
3418 3421 1 0.110 284512.0
3424 3425 1 0.135 402500.8
3425 3426 1 0.137 402500.8
3426 3427 1 0.147 319657.6
3426 3431 1 0.101 363171.2
3427 3428 1 0.143 267776.0
3427 3429 1 0.110 284512.0
3427 3430 1 0.110 284512.0
3433 3434 1 0.135 402500.8
3434 3435 1 0.137 402500.8
3435 3436 1 0.147 319657.6
3435 3440 1 0.101 363171.2
3436 3437 1 0.143 267776.0
3436 3438 1 0.110 284512.0
3436 3439 1 0.110 284512.0
3442 3443 1 0.135 402500.8
3443 3444 1 0.137 402500.8
3444 3445 1 0.147 319657.6
3444 3449 1 0.101 363171.2
3445 3446 1 0.143 267776.0
3445 3447 1 0.110 284512.0
3445 3448 1 0.110 284512.0
3451 3452 1 0.135 402500.8
3452 3453 1 0.137 402500.8
3453 3454 1 0.147 319657.6
3453 3458 1 0.101 363171.2
3454 3455 1 0.143 267776.0
3454 3456 1 0.110 284512.0
3454 3457 1 0.110 284512.0
3460 3461 1 0.135 402500.8
3461 3462 1 0.137 402500.8
3462 3463 1 0.147 319657.6
3462 3468 1 0.101 363171.2
3463 3464 1 0.143 267776.0
3463 3466 1 0.110 284512.0
3463 3467 1 0.110 284512.0
3464 3465 1 0.098 462750.4
3470 3471 1 0.135 402500.8
3471 3472 1 0.137 402500.8
3472 3473 1 0.147 319657.6
3472 3477 1 0.101 363171.2
3473 3474 1 0.143 267776.0
3473 3475 1 0.110 284512.0
3473 3476 1 0.110 284512.0
3479 3480 1 0.135 402500.8
3480 3481 1 0.137 402500.8
3481 3482 1 0.147 319657.6
3481 3486 1 0.101 363171.2
3482 3483 1 0.143 267776.0
3482 3484 1 0.110 284512.0
3482 3485 1 0.110 284512.0
3488 3489 1 0.135 402500.8
3489 3490 1 0.137 402500.8
3490 3491 1 0.147 319657.6
3490 3495 1 0.101 363171.2
3491 3492 1 0.143 267776.0
3491 3493 1 0.110 284512.0
3491 3494 1 0.110 284512.0
3497 3498 1 0.135 402500.8
3498 3499 1 0.137 402500.8
3499 3500 1 0.147 319657.6
3499 3504 1 0.101 363171.2
3500 3501 1 0.143 267776.0
3500 3502 1 0.110 284512.0
3500 3503 1 0.110 284512.0
3506 3507 1 0.135 402500.8
3507 3508 1 0.137 402500.8
3508 3509 1 0.147 319657.6
3508 3512 1 0.101 363171.2
3509 3510 1 0.110 284512.0
3509 3511 1 0.110 284512.0
3514 3515 1 0.135 402500.8
3515 3516 1 0.137 402500.8
3516 3517 1 0.147 319657.6
3516 3521 1 0.101 363171.2
3517 3518 1 0.143 267776.0
3517 3519 1 0.110 284512.0
3517 3520 1 0.110 284512.0
3523 3524 1 0.135 402500.8
3524 3525 1 0.137 402500.8
3525 3526 1 0.147 319657.6
3525 3530 1 0.101 363171.2
3526 3527 1 0.143 267776.0
3526 3528 1 0.110 284512.0
3526 3529 1 0.110 284512.0
3532 3533 1 0.135 402500.8
3533 3534 1 0.137 402500.8
3534 3535 1 0.147 319657.6
3534 3539 1 0.101 363171.2
3535 3536 1 0.143 267776.0
3535 3537 1 0.110 284512.0
3535 3538 1 0.110 284512.0
3541 3542 1 0.135 402500.8
3542 3543 1 0.137 402500.8
3543 3544 1 0.147 319657.6
3543 3548 1 0.101 363171.2
3544 3545 1 0.143 267776.0
3544 3546 1 0.110 284512.0
3544 3547 1 0.110 284512.0
3550 3551 1 0.135 402500.8
3551 3552 1 0.137 402500.8
3552 3553 1 0.147 319657.6
3552 3557 1 0.101 363171.2
3553 3554 1 0.143 267776.0
3553 3555 1 0.110 284512.0
3553 3556 1 0.110 284512.0
3559 3560 1 0.135 402500.8
3560 3561 1 0.137 402500.8
3561 3562 1 0.147 319657.6
3561 3566 1 0.101 363171.2
3562 3563 1 0.143 267776.0
3562 3564 1 0.110 284512.0
3562 3565 1 0.110 284512.0
3568 3569 1 0.135 402500.8
3569 3570 1 0.137 402500.8
3570 3571 1 0.147 319657.6
3570 3574 1 0.101 363171.2
3571 3572 1 0.110 284512.0
3571 3573 1 0.110 284512.0
3576 3577 1 0.135 402500.8
3577 3578 1 0.137 402500.8
3578 3579 1 0.147 319657.6
3578 3582 1 0.101 363171.2
3579 3580 1 0.110 284512.0
3579 3581 1 0.110 284512.0
3584 3585 1 0.135 402500.8
3585 3586 1 0.137 402500.8
3586 3587 1 0.147 319657.6
3586 3591 1 0.101 363171.2
3587 3588 1 0.143 267776.0
3587 3589 1 0.110 284512.0
3587 3590 1 0.110 284512.0
3593 3594 1 0.135 402500.8
3594 3595 1 0.137 402500.8
3595 3596 1 0.147 319657.6
3595 3599 1 0.101 363171.2
3596 3597 1 0.110 284512.0
3596 3598 1 0.110 284512.0
3601 3602 1 0.135 402500.8
3602 3603 1 0.137 402500.8
3603 3604 1 0.147 319657.6
3603 3607 1 0.101 363171.2
3604 3605 1 0.110 284512.0
3604 3606 1 0.110 284512.0
3609 3610 1 0.135 402500.8
3610 3611 1 0.137 402500.8
3611 3612 1 0.147 319657.6
3611 3616 1 0.101 363171.2
3612 3613 1 0.143 267776.0
3612 3614 1 0.110 284512.0
3612 3615 1 0.110 284512.0
3618 3619 1 0.135 402500.8
3619 3620 1 0.137 402500.8
3620 3621 1 0.147 319657.6
3620 3624 1 0.101 363171.2
3621 3622 1 0.110 284512.0
3621 3623 1 0.110 284512.0
3626 3627 1 0.135 402500.8
3627 3628 1 0.137 402500.8
3628 3629 1 0.147 319657.6
3628 3633 1 0.101 363171.2
3629 3630 1 0.143 267776.0
3629 3631 1 0.110 284512.0
3629 3632 1 0.110 284512.0
3635 3636 1 0.135 402500.8
3636 3637 1 0.137 402500.8
3637 3638 1 0.147 319657.6
3637 3641 1 0.101 363171.2
3638 3639 1 0.110 284512.0
3638 3640 1 0.110 284512.0
3643 3644 1 0.135 402500.8
3644 3645 1 0.137 402500.8
3645 3646 1 0.147 319657.6
3645 3650 1 0.101 363171.2
3646 3647 1 0.143 267776.0
3646 3648 1 0.110 284512.0
3646 3649 1 0.110 284512.0
3652 3653 1 0.135 402500.8
3653 3654 1 0.137 402500.8
3654 3655 1 0.147 319657.6
3654 3658 1 0.101 363171.2
3655 3656 1 0.110 284512.0
3655 3657 1 0.110 284512.0
3660 3661 1 0.135 402500.8
3661 3662 1 0.137 402500.8
3662 3663 1 0.147 319657.6
3662 3668 1 0.101 363171.2
3663 3664 1 0.143 267776.0
3663 3666 1 0.110 284512.0
3663 3667 1 0.110 284512.0
3664 3665 1 0.098 462750.4
3670 3671 1 0.135 402500.8
3671 3672 1 0.137 402500.8
3672 3673 1 0.147 319657.6
3672 3677 1 0.101 363171.2
3673 3674 1 0.143 267776.0
3673 3675 1 0.110 284512.0
3673 3676 1 0.110 284512.0
3679 3680 1 0.135 402500.8
3680 3681 1 0.137 402500.8
3681 3682 1 0.147 319657.6
3681 3686 1 0.101 363171.2
3682 3683 1 0.143 267776.0
3682 3684 1 0.110 284512.0
3682 3685 1 0.110 284512.0
3688 3689 1 0.135 402500.8
3689 3690 1 0.137 402500.8
3690 3691 1 0.147 319657.6
3690 3695 1 0.101 363171.2
3691 3692 1 0.143 267776.0
3691 3693 1 0.110 284512.0
3691 3694 1 0.110 284512.0
3697 3698 1 0.135 402500.8
3698 3699 1 0.137 402500.8
3699 3700 1 0.147 319657.6
3699 3704 1 0.101 363171.2
3700 3701 1 0.143 267776.0
3700 3702 1 0.110 284512.0
3700 3703 1 0.110 284512.0
3706 3707 1 0.135 402500.8
3707 3708 1 0.137 402500.8
3708 3709 1 0.147 319657.6
3708 3712 1 0.101 363171.2
3709 3710 1 0.110 284512.0
3709 3711 1 0.110 284512.0
3714 3715 1 0.135 402500.8
3715 3716 1 0.137 402500.8
3716 3717 1 0.147 319657.6
3716 3721 1 0.101 363171.2
3717 3718 1 0.143 267776.0
3717 3719 1 0.110 284512.0
3717 3720 1 0.110 284512.0
3723 3724 1 0.135 402500.8
3724 3725 1 0.137 402500.8
3725 3726 1 0.147 319657.6
3725 3730 1 0.101 363171.2
3726 3727 1 0.143 267776.0
3726 3728 1 0.110 284512.0
3726 3729 1 0.110 284512.0
3732 3733 1 0.135 402500.8
3733 3734 1 0.137 402500.8
3734 3735 1 0.147 319657.6
3734 3739 1 0.101 363171.2
3735 3736 1 0.143 267776.0
3735 3737 1 0.110 284512.0
3735 3738 1 0.110 284512.0
3741 3742 1 0.135 402500.8
3742 3743 1 0.137 402500.8
3743 3744 1 0.147 319657.6
3743 3748 1 0.101 363171.2
3744 3745 1 0.143 267776.0
3744 3746 1 0.110 284512.0
3744 3747 1 0.110 284512.0
3750 3751 1 0.135 402500.8
3751 3752 1 0.137 402500.8
3752 3753 1 0.147 319657.6
3752 3756 1 0.101 363171.2
3753 3754 1 0.110 284512.0
3753 3755 1 0.110 284512.0
3758 3759 1 0.135 402500.8
3759 3760 1 0.137 402500.8
3760 3761 1 0.147 319657.6
3760 3765 1 0.101 363171.2
3761 3762 1 0.143 267776.0
3761 3763 1 0.110 284512.0
3761 3764 1 0.110 284512.0
3767 3768 1 0.135 402500.8
3768 3769 1 0.137 402500.8
3769 3770 1 0.147 319657.6
3769 3775 1 0.101 363171.2
3770 3771 1 0.143 267776.0
3770 3773 1 0.110 284512.0
3770 3774 1 0.110 284512.0
3771 3772 1 0.098 462750.4
3777 3778 1 0.135 402500.8
3778 3779 1 0.137 402500.8
3779 3780 1 0.147 319657.6
3779 3784 1 0.101 363171.2
3780 3781 1 0.143 267776.0
3780 3782 1 0.110 284512.0
3780 3783 1 0.110 284512.0
3786 3787 1 0.135 402500.8
3787 3788 1 0.137 402500.8
3788 3789 1 0.147 319657.6
3788 3793 1 0.101 363171.2
3789 3790 1 0.143 267776.0
3789 3791 1 0.110 284512.0
3789 3792 1 0.110 284512.0
3795 3796 1 0.135 402500.8
3796 3797 1 0.137 402500.8
3797 3798 1 0.147 319657.6
3797 3801 1 0.101 363171.2
3798 3799 1 0.110 284512.0
3798 3800 1 0.110 284512.0
3803 3804 1 0.135 402500.8
3804 3805 1 0.137 402500.8
3805 3806 1 0.147 319657.6
3805 3810 1 0.101 363171.2
3806 3807 1 0.143 267776.0
3806 3808 1 0.110 284512.0
3806 3809 1 0.110 284512.0
3812 3813 1 0.135 402500.8
3813 3814 1 0.137 402500.8
3814 3815 1 0.147 319657.6
3814 3818 1 0.101 363171.2
3815 3816 1 0.110 284512.0
3815 3817 1 0.110 284512.0
3820 3821 1 0.135 402500.8
3821 3822 1 0.137 402500.8
3822 3823 1 0.147 319657.6
3822 3827 1 0.101 363171.2
3823 3824 1 0.143 267776.0
3823 3825 1 0.110 284512.0
3823 3826 1 0.110 284512.0
3829 3830 1 0.135 402500.8
3830 3831 1 0.137 402500.8
3831 3832 1 0.147 319657.6
3831 3835 1 0.101 363171.2
3832 3833 1 0.110 284512.0
3832 3834 1 0.110 284512.0
3837 3838 1 0.135 402500.8
3838 3839 1 0.137 402500.8
3839 3840 1 0.147 319657.6
3839 3844 1 0.101 363171.2
3840 3841 1 0.143 267776.0
3840 3842 1 0.110 284512.0
3840 3843 1 0.110 284512.0
3846 3847 1 0.135 402500.8
3847 3848 1 0.137 402500.8
3848 3849 1 0.147 319657.6
3848 3853 1 0.101 363171.2
3849 3850 1 0.143 267776.0
3849 3851 1 0.110 284512.0
3849 3852 1 0.110 284512.0
3855 3856 1 0.135 402500.8
3856 3857 1 0.137 402500.8
3857 3858 1 0.147 319657.6
3857 3862 1 0.101 363171.2
3858 3859 1 0.143 267776.0
3858 3860 1 0.110 284512.0
3858 3861 1 0.110 284512.0
3864 3865 1 0.135 402500.8
3865 3866 1 0.137 402500.8
3866 3867 1 0.147 319657.6
3866 3870 1 0.101 363171.2
3867 3868 1 0.110 284512.0
3867 3869 1 0.110 284512.0
3872 3873 1 0.135 402500.8
3873 3874 1 0.137 402500.8
3874 3875 1 0.147 319657.6
3874 3879 1 0.101 363171.2
3875 3876 1 0.143 267776.0
3875 3877 1 0.110 284512.0
3875 3878 1 0.110 284512.0
3881 3882 1 0.135 402500.8
3882 3883 1 0.137 402500.8
3883 3884 1 0.147 319657.6
3883 3889 1 0.101 363171.2
3884 3885 1 0.143 267776.0
3884 3887 1 0.110 284512.0
3884 3888 1 0.110 284512.0
3885 3886 1 0.098 462750.4
3891 3892 1 0.135 402500.8
3892 3893 1 0.137 402500.8
3893 3894 1 0.147 319657.6
3893 3898 1 0.101 363171.2
3894 3895 1 0.143 267776.0
3894 3896 1 0.110 284512.0
3894 3897 1 0.110 284512.0
3900 3901 1 0.135 402500.8
3901 3902 1 0.137 402500.8
3902 3903 1 0.147 319657.6
3902 3908 1 0.101 363171.2
3903 3904 1 0.143 267776.0
3903 3906 1 0.110 284512.0
3903 3907 1 0.110 284512.0
3904 3905 1 0.098 462750.4
3910 3911 1 0.135 402500.8
3911 3912 1 0.137 402500.8
3912 3913 1 0.147 319657.6
3912 3916 1 0.101 363171.2
3913 3914 1 0.110 284512.0
3913 3915 1 0.110 284512.0
3918 3919 1 0.135 402500.8
3919 3920 1 0.137 402500.8
3920 3921 1 0.147 319657.6
3920 3925 1 0.101 363171.2
3921 3922 1 0.143 267776.0
3921 3923 1 0.110 284512.0
3921 3924 1 0.110 284512.0
3927 3928 1 0.135 402500.8
3928 3929 1 0.137 402500.8
3929 3930 1 0.147 319657.6
3929 3934 1 0.101 363171.2
3930 3931 1 0.143 267776.0
3930 3932 1 0.110 284512.0
3930 3933 1 0.110 284512.0
3936 3937 1 0.135 402500.8
3937 3938 1 0.137 402500.8
3938 3939 1 0.147 319657.6
3938 3943 1 0.101 363171.2
3939 3940 1 0.143 267776.0
3939 3941 1 0.110 284512.0
3939 3942 1 0.110 284512.0
3945 3946 1 0.135 402500.8
3946 3947 1 0.137 402500.8
3947 3948 1 0.147 319657.6
3947 3952 1 0.101 363171.2
3948 3949 1 0.143 267776.0
3948 3950 1 0.110 284512.0
3948 3951 1 0.110 284512.0
3954 3955 1 0.135 402500.8
3955 3956 1 0.137 402500.8
3956 3957 1 0.147 319657.6
3956 3961 1 0.101 363171.2
3957 3958 1 0.143 267776.0
3957 3959 1 0.110 284512.0
3957 3960 1 0.110 284512.0
3963 3964 1 0.135 402500.8
3964 3965 1 0.137 402500.8
3965 3966 1 0.147 319657.6
3965 3971 1 0.101 363171.2
3966 3967 1 0.143 267776.0
3966 3969 1 0.110 284512.0
3966 3970 1 0.110 284512.0
3967 3968 1 0.098 462750.4
3973 3974 1 0.135 402500.8
3974 3975 1 0.137 402500.8
3975 3976 1 0.147 319657.6
3975 3979 1 0.101 363171.2
3976 3977 1 0.110 284512.0
3976 3978 1 0.110 284512.0
3981 3982 1 0.135 402500.8
3982 3983 1 0.137 402500.8
3983 3984 1 0.147 319657.6
3983 3987 1 0.101 363171.2
3984 3985 1 0.110 284512.0
3984 3986 1 0.110 284512.0
3989 3990 1 0.135 402500.8
3990 3991 1 0.137 402500.8
3991 3992 1 0.147 319657.6
3991 3996 1 0.101 363171.2
3992 3993 1 0.143 267776.0
3992 3994 1 0.110 284512.0
3992 3995 1 0.110 284512.0
3998 3999 1 0.135 402500.8
3999 4000 1 0.137 402500.8
4000 4001 1 0.147 319657.6
4000 4005 1 0.101 363171.2
4001 4002 1 0.143 267776.0
4001 4003 1 0.110 284512.0
4001 4004 1 0.110 284512.0
4007 4008 1 0.135 402500.8
4008 4009 1 0.137 402500.8
4009 4010 1 0.147 319657.6
4009 4014 1 0.101 363171.2
4010 4011 1 0.143 267776.0
4010 4012 1 0.110 284512.0
4010 4013 1 0.110 284512.0
4016 4017 1 0.135 402500.8
4017 4018 1 0.137 402500.8
4018 4019 1 0.147 319657.6
4018 4023 1 0.101 363171.2
4019 4020 1 0.143 267776.0
4019 4021 1 0.110 284512.0
4019 4022 1 0.110 284512.0
4025 4026 1 0.135 402500.8
4026 4027 1 0.137 402500.8
4027 4028 1 0.147 319657.6
4027 4032 1 0.101 363171.2
4028 4029 1 0.143 267776.0
4028 4030 1 0.110 284512.0
4028 4031 1 0.110 284512.0
4034 4035 1 0.135 402500.8
4035 4036 1 0.137 402500.8
4036 4037 1 0.147 319657.6
4036 4041 1 0.101 363171.2
4037 4038 1 0.143 267776.0
4037 4039 1 0.110 284512.0
4037 4040 1 0.110 284512.0
4043 4044 1 0.135 402500.8
4044 4045 1 0.137 402500.8
4045 4046 1 0.147 319657.6
4045 4049 1 0.101 363171.2
4046 4047 1 0.110 284512.0
4046 4048 1 0.110 284512.0
4051 4052 1 0.135 402500.8
4052 4053 1 0.137 402500.8
4053 4054 1 0.147 319657.6
4053 4058 1 0.101 363171.2
4054 4055 1 0.143 267776.0
4054 4056 1 0.110 284512.0
4054 4057 1 0.110 284512.0
4060 4061 1 0.135 402500.8
4061 4062 1 0.137 402500.8
4062 4063 1 0.147 319657.6
4062 4067 1 0.101 363171.2
4063 4064 1 0.143 267776.0
4063 4065 1 0.110 284512.0
4063 4066 1 0.110 284512.0
4069 4070 1 0.135 402500.8
4070 4071 1 0.137 402500.8
4071 4072 1 0.147 319657.6
4071 4075 1 0.101 363171.2
4072 4073 1 0.110 284512.0
4072 4074 1 0.110 284512.0
4077 4078 1 0.135 402500.8
4078 4079 1 0.137 402500.8
4079 4080 1 0.147 319657.6
4079 4083 1 0.101 363171.2
4080 4081 1 0.110 284512.0
4080 4082 1 0.110 284512.0
4085 4086 1 0.135 402500.8
4086 4087 1 0.137 402500.8
4087 4088 1 0.147 319657.6
4087 4093 1 0.101 363171.2
4088 4089 1 0.143 267776.0
4088 4091 1 0.110 284512.0
4088 4092 1 0.110 284512.0
4089 4090 1 0.098 462750.4
4095 4096 1 0.135 402500.8
4096 4097 1 0.137 402500.8
4097 4098 1 0.147 319657.6
4097 4102 1 0.101 363171.2
4098 4099 1 0.143 267776.0
4098 4100 1 0.110 284512.0
4098 4101 1 0.110 284512.0
4104 4105 1 0.135 402500.8
4105 4106 1 0.137 402500.8
4106 4107 1 0.147 319657.6
4106 4111 1 0.101 363171.2
4107 4108 1 0.143 267776.0
4107 4109 1 0.110 284512.0
4107 4110 1 0.110 284512.0
4113 4114 1 0.135 402500.8
4114 4115 1 0.137 402500.8
4115 4116 1 0.147 319657.6
4115 4120 1 0.101 363171.2
4116 4117 1 0.143 267776.0
4116 4118 1 0.110 284512.0
4116 4119 1 0.110 284512.0
4122 4123 1 0.135 402500.8
4123 4124 1 0.137 402500.8
4124 4125 1 0.147 319657.6
4124 4129 1 0.101 363171.2
4125 4126 1 0.143 267776.0
4125 4127 1 0.110 284512.0
4125 4128 1 0.110 284512.0
4131 4132 1 0.135 402500.8
4132 4133 1 0.137 402500.8
4133 4134 1 0.147 319657.6
4133 4137 1 0.101 363171.2
4134 4135 1 0.110 284512.0
4134 4136 1 0.110 284512.0
4139 4140 1 0.135 402500.8
4140 4141 1 0.137 402500.8
4141 4142 1 0.147 319657.6
4141 4146 1 0.101 363171.2
4142 4143 1 0.143 267776.0
4142 4144 1 0.110 284512.0
4142 4145 1 0.110 284512.0
4148 4149 1 0.135 402500.8
4149 4150 1 0.137 402500.8
4150 4151 1 0.147 319657.6
4150 4154 1 0.101 363171.2
4151 4152 1 0.110 284512.0
4151 4153 1 0.110 284512.0
4156 4157 1 0.135 402500.8
4157 4158 1 0.137 402500.8
4158 4159 1 0.147 319657.6
4158 4163 1 0.101 363171.2
4159 4160 1 0.143 267776.0
4159 4161 1 0.110 284512.0
4159 4162 1 0.110 284512.0
4165 4166 1 0.135 402500.8
4166 4167 1 0.137 402500.8
4167 4168 1 0.147 319657.6
4167 4171 1 0.101 363171.2
4168 4169 1 0.110 284512.0
4168 4170 1 0.110 284512.0
4173 4174 1 0.135 402500.8
4174 4175 1 0.137 402500.8
4175 4176 1 0.147 319657.6
4175 4181 1 0.101 363171.2
4176 4177 1 0.143 267776.0
4176 4179 1 0.110 284512.0
4176 4180 1 0.110 284512.0
4177 4178 1 0.098 462750.4
4183 4184 1 0.135 402500.8
4184 4185 1 0.137 402500.8
4185 4186 1 0.147 319657.6
4185 4190 1 0.101 363171.2
4186 4187 1 0.143 267776.0
4186 4188 1 0.110 284512.0
4186 4189 1 0.110 284512.0
4192 4193 1 0.135 402500.8
4193 4194 1 0.137 402500.8
4194 4195 1 0.147 319657.6
4194 4200 1 0.101 363171.2
4195 4196 1 0.143 267776.0
4195 4198 1 0.110 284512.0
4195 4199 1 0.110 284512.0
4196 4197 1 0.098 462750.4
4202 4203 1 0.135 402500.8
4203 4204 1 0.137 402500.8
4204 4205 1 0.147 319657.6
4204 4209 1 0.101 363171.2
4205 4206 1 0.143 267776.0
4205 4207 1 0.110 284512.0
4205 4208 1 0.110 284512.0
4211 4212 1 0.135 402500.8
4212 4213 1 0.137 402500.8
4213 4214 1 0.147 319657.6
4213 4218 1 0.101 363171.2
4214 4215 1 0.143 267776.0
4214 4216 1 0.110 284512.0
4214 4217 1 0.110 284512.0
4220 4221 1 0.135 402500.8
4221 4222 1 0.137 402500.8
4222 4223 1 0.147 319657.6
4222 4228 1 0.101 363171.2
4223 4224 1 0.143 267776.0
4223 4226 1 0.110 284512.0
4223 4227 1 0.110 284512.0
4224 4225 1 0.098 462750.4
4230 4231 1 0.135 402500.8
4231 4232 1 0.137 402500.8
4232 4233 1 0.147 319657.6
4232 4237 1 0.101 363171.2
4233 4234 1 0.143 267776.0
4233 4235 1 0.110 284512.0
4233 4236 1 0.110 284512.0
4239 4240 1 0.135 402500.8
4240 4241 1 0.137 402500.8
4241 4242 1 0.147 319657.6
4241 4246 1 0.101 363171.2
4242 4243 1 0.143 267776.0
4242 4244 1 0.110 284512.0
4242 4245 1 0.110 284512.0
4248 4249 1 0.135 402500.8
4249 4250 1 0.137 402500.8
4250 4251 1 0.147 319657.6
4250 4255 1 0.101 363171.2
4251 4252 1 0.143 267776.0
4251 4253 1 0.110 284512.0
4251 4254 1 0.110 284512.0
4257 4258 1 0.135 402500.8
4258 4259 1 0.137 402500.8
4259 4260 1 0.147 319657.6
4259 4265 1 0.101 363171.2
4260 4261 1 0.143 267776.0
4260 4263 1 0.110 284512.0
4260 4264 1 0.110 284512.0
4261 4262 1 0.098 462750.4
4267 4268 1 0.135 402500.8
4268 4269 1 0.137 402500.8
4269 4270 1 0.147 319657.6
4269 4274 1 0.101 363171.2
4270 4271 1 0.143 267776.0
4270 4272 1 0.110 284512.0
4270 4273 1 0.110 284512.0
4276 4277 1 0.135 402500.8
4277 4278 1 0.137 402500.8
4278 4279 1 0.147 319657.6
4278 4282 1 0.101 363171.2
4279 4280 1 0.110 284512.0
4279 4281 1 0.110 284512.0
4284 4285 1 0.135 402500.8
4285 4286 1 0.137 402500.8
4286 4287 1 0.147 319657.6
4286 4292 1 0.101 363171.2
4287 4288 1 0.143 267776.0
4287 4290 1 0.110 284512.0
4287 4291 1 0.110 284512.0
4288 4289 1 0.098 462750.4
4294 4295 1 0.135 402500.8
4295 4296 1 0.137 402500.8
4296 4297 1 0.147 319657.6
4296 4301 1 0.101 363171.2
4297 4298 1 0.143 267776.0
4297 4299 1 0.110 284512.0
4297 4300 1 0.110 284512.0
4303 4304 1 0.135 402500.8
4304 4305 1 0.137 402500.8
4305 4306 1 0.147 319657.6
4305 4310 1 0.101 363171.2
4306 4307 1 0.143 267776.0
4306 4308 1 0.110 284512.0
4306 4309 1 0.110 284512.0
4312 4313 1 0.135 402500.8
4313 4314 1 0.137 402500.8
4314 4315 1 0.147 319657.6
4314 4318 1 0.101 363171.2
4315 4316 1 0.110 284512.0
4315 4317 1 0.110 284512.0
4320 4321 1 0.135 402500.8
4321 4322 1 0.137 402500.8
4322 4323 1 0.147 319657.6
4322 4327 1 0.101 363171.2
4323 4324 1 0.143 267776.0
4323 4325 1 0.110 284512.0
4323 4326 1 0.110 284512.0
4329 4330 1 0.135 402500.8
4330 4331 1 0.137 402500.8
4331 4332 1 0.147 319657.6
4331 4335 1 0.101 363171.2
4332 4333 1 0.110 284512.0
4332 4334 1 0.110 284512.0
4337 4338 1 0.135 402500.8
4338 4339 1 0.137 402500.8
4339 4340 1 0.147 319657.6
4339 4344 1 0.101 363171.2
4340 4341 1 0.143 267776.0
4340 4342 1 0.110 284512.0
4340 4343 1 0.110 284512.0
4346 4347 1 0.135 402500.8
4347 4348 1 0.137 402500.8
4348 4349 1 0.147 319657.6
4348 4353 1 0.101 363171.2
4349 4350 1 0.143 267776.0
4349 4351 1 0.110 284512.0
4349 4352 1 0.110 284512.0
4355 4356 1 0.135 402500.8
4356 4357 1 0.137 402500.8
4357 4358 1 0.147 319657.6
4357 4361 1 0.101 363171.2
4358 4359 1 0.110 284512.0
4358 4360 1 0.110 284512.0
4363 4364 1 0.135 402500.8
4364 4365 1 0.137 402500.8
4365 4366 1 0.147 319657.6
4365 4369 1 0.101 363171.2
4366 4367 1 0.110 284512.0
4366 4368 1 0.110 284512.0
4371 4372 1 0.135 402500.8
4372 4373 1 0.137 402500.8
4373 4374 1 0.147 319657.6
4373 4377 1 0.101 363171.2
4374 4375 1 0.110 284512.0
4374 4376 1 0.110 284512.0
4379 4380 1 0.135 402500.8
4380 4381 1 0.137 402500.8
4381 4382 1 0.147 319657.6
4381 4386 1 0.101 363171.2
4382 4383 1 0.143 267776.0
4382 4384 1 0.110 284512.0
4382 4385 1 0.110 284512.0
4388 4389 1 0.135 402500.8
4389 4390 1 0.137 402500.8
4390 4391 1 0.147 319657.6
4390 4395 1 0.101 363171.2
4391 4392 1 0.143 267776.0
4391 4393 1 0.110 284512.0
4391 4394 1 0.110 284512.0
4397 4398 1 0.135 402500.8
4398 4399 1 0.137 402500.8
4399 4400 1 0.147 319657.6
4399 4405 1 0.101 363171.2
4400 4401 1 0.143 267776.0
4400 4403 1 0.110 284512.0
4400 4404 1 0.110 284512.0
4401 4402 1 0.097 462750.4
4407 4408 1 0.135 402500.8
4408 4409 1 0.137 402500.8
4409 4410 1 0.147 319657.6
4409 4414 1 0.101 363171.2
4410 4411 1 0.143 267776.0
4410 4412 1 0.110 284512.0
4410 4413 1 0.110 284512.0
4416 4417 1 0.135 402500.8
4417 4418 1 0.137 402500.8
4418 4419 1 0.147 319657.6
4418 4423 1 0.101 363171.2
4419 4420 1 0.143 267776.0
4419 4421 1 0.110 284512.0
4419 4422 1 0.110 284512.0
4425 4426 1 0.135 402500.8
4426 4427 1 0.137 402500.8
4427 4428 1 0.147 319657.6
4427 4432 1 0.101 363171.2
4428 4429 1 0.143 267776.0
4428 4430 1 0.110 284512.0
4428 4431 1 0.110 284512.0
4434 4435 1 0.135 402500.8
4435 4436 1 0.137 402500.8
4436 4437 1 0.147 319657.6
4436 4441 1 0.101 363171.2
4437 4438 1 0.143 267776.0
4437 4439 1 0.110 284512.0
4437 4440 1 0.110 284512.0
4443 4444 1 0.135 402500.8
4444 4445 1 0.137 402500.8
4445 4446 1 0.147 319657.6
4445 4450 1 0.101 363171.2
4446 4447 1 0.143 267776.0
4446 4448 1 0.110 284512.0
4446 4449 1 0.110 284512.0
4452 4453 1 0.135 402500.8
4453 4454 1 0.137 402500.8
4454 4455 1 0.147 319657.6
4454 4459 1 0.101 363171.2
4455 4456 1 0.143 267776.0
4455 4457 1 0.110 284512.0
4455 4458 1 0.110 284512.0
4461 4462 1 0.135 402500.8
4462 4463 1 0.137 402500.8
4463 4464 1 0.147 319657.6
4463 4468 1 0.101 363171.2
4464 4465 1 0.143 267776.0
4464 4466 1 0.110 284512.0
4464 4467 1 0.110 284512.0
4470 4471 1 0.135 402500.8
4471 4472 1 0.137 402500.8
4472 4473 1 0.147 319657.6
4472 4477 1 0.101 363171.2
4473 4474 1 0.143 267776.0
4473 4475 1 0.110 284512.0
4473 4476 1 0.110 284512.0
4479 4480 1 0.135 402500.8
4480 4481 1 0.137 402500.8
4481 4482 1 0.147 319657.6
4481 4486 1 0.101 363171.2
4482 4483 1 0.143 267776.0
4482 4484 1 0.110 284512.0
4482 4485 1 0.110 284512.0
4488 4489 1 0.135 402500.8
4489 4490 1 0.137 402500.8
4490 4491 1 0.147 319657.6
4490 4494 1 0.101 363171.2
4491 4492 1 0.110 284512.0
4491 4493 1 0.110 284512.0
4496 4497 1 0.135 402500.8
4497 4498 1 0.137 402500.8
4498 4499 1 0.147 319657.6
4498 4503 1 0.101 363171.2
4499 4500 1 0.143 267776.0
4499 4501 1 0.110 284512.0
4499 4502 1 0.110 284512.0
4505 4506 1 0.135 402500.8
4506 4507 1 0.137 402500.8
4507 4508 1 0.147 319657.6
4507 4511 1 0.101 363171.2
4508 4509 1 0.110 284512.0
4508 4510 1 0.110 284512.0
4513 4514 1 0.135 402500.8
4514 4515 1 0.137 402500.8
4515 4516 1 0.147 319657.6
4515 4520 1 0.101 363171.2
4516 4517 1 0.143 267776.0
4516 4518 1 0.110 284512.0
4516 4519 1 0.110 284512.0
4522 4523 1 0.135 402500.8
4523 4524 1 0.137 402500.8
4524 4525 1 0.147 319657.6
4524 4528 1 0.101 363171.2
4525 4526 1 0.110 284512.0
4525 4527 1 0.110 284512.0
4530 4531 1 0.135 402500.8
4531 4532 1 0.137 402500.8
4532 4533 1 0.147 319657.6
4532 4537 1 0.101 363171.2
4533 4534 1 0.143 267776.0
4533 4535 1 0.110 284512.0
4533 4536 1 0.110 284512.0
4539 4540 1 0.135 402500.8
4540 4541 1 0.137 402500.8
4541 4542 1 0.147 319657.6
4541 4545 1 0.101 363171.2
4542 4543 1 0.110 284512.0
4542 4544 1 0.110 284512.0
4547 4548 1 0.135 402500.8
4548 4549 1 0.137 402500.8
4549 4550 1 0.147 319657.6
4549 4553 1 0.101 363171.2
4550 4551 1 0.110 284512.0
4550 4552 1 0.110 284512.0
4555 4556 1 0.135 402500.8
4556 4557 1 0.137 402500.8
4557 4558 1 0.147 319657.6
4557 4562 1 0.101 363171.2
4558 4559 1 0.143 267776.0
4558 4560 1 0.110 284512.0
4558 4561 1 0.110 284512.0
4564 4565 1 0.135 402500.8
4565 4566 1 0.137 402500.8
4566 4567 1 0.147 319657.6
4566 4571 1 0.101 363171.2
4567 4568 1 0.143 267776.0
4567 4569 1 0.110 284512.0
4567 4570 1 0.110 284512.0
4573 4574 1 0.135 402500.8
4574 4575 1 0.137 402500.8
4575 4576 1 0.147 319657.6
4575 4579 1 0.101 363171.2
4576 4577 1 0.110 284512.0
4576 4578 1 0.110 284512.0
4581 4582 1 0.135 402500.8
4582 4583 1 0.137 402500.8
4583 4584 1 0.147 319657.6
4583 4588 1 0.101 363171.2
4584 4585 1 0.143 267776.0
4584 4586 1 0.110 284512.0
4584 4587 1 0.110 284512.0
4590 4591 1 0.135 402500.8
4591 4592 1 0.137 402500.8
4592 4593 1 0.147 319657.6
4592 4597 1 0.101 363171.2
4593 4594 1 0.143 267776.0
4593 4595 1 0.110 284512.0
4593 4596 1 0.110 284512.0
4599 4600 1 0.135 402500.8
4600 4601 1 0.137 402500.8
4601 4602 1 0.147 319657.6
4601 4606 1 0.101 363171.2
4602 4603 1 0.143 267776.0
4602 4604 1 0.110 284512.0
4602 4605 1 0.110 284512.0
4608 4609 1 0.135 402500.8
4609 4610 1 0.137 402500.8
4610 4611 1 0.147 319657.6
4610 4614 1 0.101 363171.2
4611 4612 1 0.110 284512.0
4611 4613 1 0.110 284512.0
4616 4617 1 0.135 402500.8
4617 4618 1 0.137 402500.8
4618 4619 1 0.147 319657.6
4618 4623 1 0.101 363171.2
4619 4620 1 0.143 267776.0
4619 4621 1 0.110 284512.0
4619 4622 1 0.110 284512.0
4625 4626 1 0.135 402500.8
4626 4627 1 0.137 402500.8
4627 4628 1 0.147 319657.6
4627 4633 1 0.101 363171.2
4628 4629 1 0.143 267776.0
4628 4631 1 0.110 284512.0
4628 4632 1 0.110 284512.0
4629 4630 1 0.098 462750.4
4635 4636 1 0.135 402500.8
4636 4637 1 0.137 402500.8
4637 4638 1 0.147 319657.6
4637 4642 1 0.101 363171.2
4638 4639 1 0.143 267776.0
4638 4640 1 0.110 284512.0
4638 4641 1 0.110 284512.0
4644 4645 1 0.135 402500.8
4645 4646 1 0.137 402500.8
4646 4647 1 0.147 319657.6
4646 4651 1 0.101 363171.2
4647 4648 1 0.143 267776.0
4647 4649 1 0.110 284512.0
4647 4650 1 0.110 284512.0
4653 4654 1 0.135 402500.8
4654 4655 1 0.137 402500.8
4655 4656 1 0.147 319657.6
4655 4660 1 0.101 363171.2
4656 4657 1 0.143 267776.0
4656 4658 1 0.110 284512.0
4656 4659 1 0.110 284512.0
4662 4663 1 0.135 402500.8
4663 4664 1 0.137 402500.8
4664 4665 1 0.147 319657.6
4664 4669 1 0.101 363171.2
4665 4666 1 0.143 267776.0
4665 4667 1 0.110 284512.0
4665 4668 1 0.110 284512.0
4671 4672 1 0.135 402500.8
4672 4673 1 0.137 402500.8
4673 4674 1 0.147 319657.6
4673 4678 1 0.101 363171.2
4674 4675 1 0.143 267776.0
4674 4676 1 0.110 284512.0
4674 4677 1 0.110 284512.0
4680 4681 1 0.135 402500.8
4681 4682 1 0.137 402500.8
4682 4683 1 0.147 319657.6
4682 4687 1 0.101 363171.2
4683 4684 1 0.143 267776.0
4683 4685 1 0.110 284512.0
4683 4686 1 0.110 284512.0
4689 4690 1 0.135 402500.8
4690 4691 1 0.137 402500.8
4691 4692 1 0.147 319657.6
4691 4695 1 0.101 363171.2
4692 4693 1 0.110 284512.0
4692 4694 1 0.110 284512.0
4697 4698 1 0.135 402500.8
4698 4699 1 0.137 402500.8
4699 4700 1 0.147 319657.6
4699 4704 1 0.101 363171.2
4700 4701 1 0.143 267776.0
4700 4702 1 0.110 284512.0
4700 4703 1 0.110 284512.0
4706 4707 1 0.135 402500.8
4707 4708 1 0.137 402500.8
4708 4709 1 0.147 319657.6
4708 4712 1 0.101 363171.2
4709 4710 1 0.110 284512.0
4709 4711 1 0.110 284512.0
4714 4715 1 0.135 402500.8
4715 4716 1 0.137 402500.8
4716 4717 1 0.147 319657.6
4716 4721 1 0.101 363171.2
4717 4718 1 0.143 267776.0
4717 4719 1 0.110 284512.0
4717 4720 1 0.110 284512.0
4723 4724 1 0.135 402500.8
4724 4725 1 0.137 402500.8
4725 4726 1 0.147 319657.6
4725 4730 1 0.101 363171.2
4726 4727 1 0.143 267776.0
4726 4728 1 0.110 284512.0
4726 4729 1 0.110 284512.0
4732 4733 1 0.135 402500.8
4733 4734 1 0.137 402500.8
4734 4735 1 0.147 319657.6
4734 4739 1 0.101 363171.2
4735 4736 1 0.143 267776.0
4735 4737 1 0.110 284512.0
4735 4738 1 0.110 284512.0
4741 4742 1 0.135 402500.8
4742 4743 1 0.137 402500.8
4743 4744 1 0.147 319657.6
4743 4749 1 0.101 363171.2
4744 4745 1 0.143 267776.0
4744 4747 1 0.110 284512.0
4744 4748 1 0.110 284512.0
4745 4746 1 0.097 462750.4
4751 4752 1 0.135 402500.8
4752 4753 1 0.137 402500.8
4753 4754 1 0.147 319657.6
4753 4758 1 0.101 363171.2
4754 4755 1 0.143 267776.0
4754 4756 1 0.110 284512.0
4754 4757 1 0.110 284512.0
4760 4761 1 0.135 402500.8
4761 4762 1 0.137 402500.8
4762 4763 1 0.147 319657.6
4762 4767 1 0.101 363171.2
4763 4764 1 0.143 267776.0
4763 4765 1 0.110 284512.0
4763 4766 1 0.110 284512.0
4769 4770 1 0.135 402500.8
4770 4771 1 0.137 402500.8
4771 4772 1 0.147 319657.6
4771 4776 1 0.101 363171.2
4772 4773 1 0.143 267776.0
4772 4774 1 0.110 284512.0
4772 4775 1 0.110 284512.0
4778 4779 1 0.135 402500.8
4779 4780 1 0.137 402500.8
4780 4781 1 0.147 319657.6
4780 4785 1 0.101 363171.2
4781 4782 1 0.143 267776.0
4781 4783 1 0.110 284512.0
4781 4784 1 0.110 284512.0
4787 4788 1 0.135 402500.8
4788 4789 1 0.137 402500.8
4789 4790 1 0.147 319657.6
4789 4794 1 0.101 363171.2
4790 4791 1 0.143 267776.0
4790 4792 1 0.110 284512.0
4790 4793 1 0.110 284512.0
4796 4797 1 0.135 402500.8
4797 4798 1 0.137 402500.8
4798 4799 1 0.147 319657.6
4798 4802 1 0.101 363171.2
4799 4800 1 0.110 284512.0
4799 4801 1 0.110 284512.0
4804 4805 1 0.135 402500.8
4805 4806 1 0.137 402500.8
4806 4807 1 0.147 319657.6
4806 4811 1 0.101 363171.2
4807 4808 1 0.143 267776.0
4807 4809 1 0.110 284512.0
4807 4810 1 0.110 284512.0
4813 4814 1 0.135 402500.8
4814 4815 1 0.137 402500.8
4815 4816 1 0.147 319657.6
4815 4820 1 0.101 363171.2
4816 4817 1 0.143 267776.0
4816 4818 1 0.110 284512.0
4816 4819 1 0.110 284512.0
4822 4823 1 0.135 402500.8
4823 4824 1 0.137 402500.8
4824 4825 1 0.147 319657.6
4824 4829 1 0.101 363171.2
4825 4826 1 0.143 267776.0
4825 4827 1 0.110 284512.0
4825 4828 1 0.110 284512.0
4831 4832 1 0.135 402500.8
4832 4833 1 0.137 402500.8
4833 4834 1 0.147 319657.6
4833 4837 1 0.101 363171.2
4834 4835 1 0.110 284512.0
4834 4836 1 0.110 284512.0
4839 4840 1 0.135 402500.8
4840 4841 1 0.137 402500.8
4841 4842 1 0.147 319657.6
4841 4845 1 0.101 363171.2
4842 4843 1 0.110 284512.0
4842 4844 1 0.110 284512.0
4847 4848 1 0.135 402500.8
4848 4849 1 0.137 402500.8
4849 4850 1 0.147 319657.6
4849 4854 1 0.101 363171.2
4850 4851 1 0.143 267776.0
4850 4852 1 0.110 284512.0
4850 4853 1 0.110 284512.0
4856 4857 1 0.135 402500.8
4857 4858 1 0.137 402500.8
4858 4859 1 0.147 319657.6
4858 4863 1 0.101 363171.2
4859 4860 1 0.143 267776.0
4859 4861 1 0.110 284512.0
4859 4862 1 0.110 284512.0
4865 4866 1 0.135 402500.8
4866 4867 1 0.137 402500.8
4867 4868 1 0.147 319657.6
4867 4871 1 0.101 363171.2
4868 4869 1 0.110 284512.0
4868 4870 1 0.110 284512.0
4873 4874 1 0.135 402500.8
4874 4875 1 0.137 402500.8
4875 4876 1 0.147 319657.6
4875 4880 1 0.101 363171.2
4876 4877 1 0.143 267776.0
4876 4878 1 0.110 284512.0
4876 4879 1 0.110 284512.0
4882 4883 1 0.135 402500.8
4883 4884 1 0.137 402500.8
4884 4885 1 0.147 319657.6
4884 4889 1 0.101 363171.2
4885 4886 1 0.143 267776.0
4885 4887 1 0.110 284512.0
4885 4888 1 0.110 284512.0
4891 4892 1 0.135 402500.8
4892 4893 1 0.137 402500.8
4893 4894 1 0.147 319657.6
4893 4898 1 0.101 363171.2
4894 4895 1 0.143 267776.0
4894 4896 1 0.110 284512.0
4894 4897 1 0.110 284512.0
4900 4901 1 0.135 402500.8
4901 4902 1 0.137 402500.8
4902 4903 1 0.147 319657.6
4902 4907 1 0.101 363171.2
4903 4904 1 0.143 267776.0
4903 4905 1 0.110 284512.0
4903 4906 1 0.110 284512.0
4909 4910 1 0.135 402500.8
4910 4911 1 0.137 402500.8
4911 4912 1 0.147 319657.6
4911 4915 1 0.101 363171.2
4912 4913 1 0.110 284512.0
4912 4914 1 0.110 284512.0
4917 4918 1 0.135 402500.8
4918 4919 1 0.137 402500.8
4919 4920 1 0.147 319657.6
4919 4923 1 0.101 363171.2
4920 4921 1 0.110 284512.0
4920 4922 1 0.110 284512.0
4925 4926 1 0.135 402500.8
4926 4927 1 0.137 402500.8
4927 4928 1 0.147 319657.6
4927 4932 1 0.101 363171.2
4928 4929 1 0.143 267776.0
4928 4930 1 0.110 284512.0
4928 4931 1 0.110 284512.0
4934 4935 1 0.135 402500.8
4935 4936 1 0.137 402500.8
4936 4937 1 0.147 319657.6
4936 4941 1 0.101 363171.2
4937 4938 1 0.143 267776.0
4937 4939 1 0.110 284512.0
4937 4940 1 0.110 284512.0
4943 4944 1 0.135 402500.8
4944 4945 1 0.137 402500.8
4945 4946 1 0.147 319657.6
4945 4951 1 0.101 363171.2
4946 4947 1 0.143 267776.0
4946 4949 1 0.110 284512.0
4946 4950 1 0.110 284512.0
4947 4948 1 0.098 462750.4
4953 4954 1 0.135 402500.8
4954 4955 1 0.137 402500.8
4955 4956 1 0.147 319657.6
4955 4959 1 0.101 363171.2
4956 4957 1 0.110 284512.0
4956 4958 1 0.110 284512.0
4961 4962 1 0.135 402500.8
4962 4963 1 0.137 402500.8
4963 4964 1 0.147 319657.6
4963 4967 1 0.101 363171.2
4964 4965 1 0.110 284512.0
4964 4966 1 0.110 284512.0
4969 4970 1 0.135 402500.8
4970 4971 1 0.137 402500.8
4971 4972 1 0.147 319657.6
4971 4975 1 0.101 363171.2
4972 4973 1 0.110 284512.0
4972 4974 1 0.110 284512.0
4977 4978 1 0.135 402500.8
4978 4979 1 0.137 402500.8
4979 4980 1 0.147 319657.6
4979 4984 1 0.101 363171.2
4980 4981 1 0.143 267776.0
4980 4982 1 0.110 284512.0
4980 4983 1 0.110 284512.0
4986 4987 1 0.135 402500.8
4987 4988 1 0.137 402500.8
4988 4989 1 0.147 319657.6
4988 4993 1 0.101 363171.2
4989 4990 1 0.143 267776.0
4989 4991 1 0.110 284512.0
4989 4992 1 0.110 284512.0
4995 4996 1 0.135 402500.8
4996 4997 1 0.137 402500.8
4997 4998 1 0.147 319657.6
4997 5002 1 0.101 363171.2
4998 4999 1 0.143 267776.0
4998 5000 1 0.110 284512.0
4998 5001 1 0.110 284512.0
5004 5005 1 0.135 402500.8
5005 5006 1 0.137 402500.8
5006 5007 1 0.147 319657.6
5006 5012 1 0.101 363171.2
5007 5008 1 0.143 267776.0
5007 5010 1 0.110 284512.0
5007 5011 1 0.110 284512.0
5008 5009 1 0.097 462750.4
5014 5015 1 0.135 402500.8
5015 5016 1 0.137 402500.8
5016 5017 1 0.147 319657.6
5016 5021 1 0.101 363171.2
5017 5018 1 0.143 267776.0
5017 5019 1 0.110 284512.0
5017 5020 1 0.110 284512.0
5023 5024 1 0.135 402500.8
5024 5025 1 0.137 402500.8
5025 5026 1 0.147 319657.6
5025 5029 1 0.101 363171.2
5026 5027 1 0.110 284512.0
5026 5028 1 0.110 284512.0
5031 5032 1 0.135 402500.8
5032 5033 1 0.137 402500.8
5033 5034 1 0.147 319657.6
5033 5038 1 0.101 363171.2
5034 5035 1 0.143 267776.0
5034 5036 1 0.110 284512.0
5034 5037 1 0.110 284512.0
5040 5041 1 0.135 402500.8
5041 5042 1 0.137 402500.8
5042 5043 1 0.147 319657.6
5042 5046 1 0.101 363171.2
5043 5044 1 0.110 284512.0
5043 5045 1 0.110 284512.0
5048 5049 1 0.135 402500.8
5049 5050 1 0.137 402500.8
5050 5051 1 0.147 319657.6
5050 5056 1 0.101 363171.2
5051 5052 1 0.143 267776.0
5051 5054 1 0.110 284512.0
5051 5055 1 0.110 284512.0
5052 5053 1 0.098 462750.4
5058 5059 1 0.135 402500.8
5059 5060 1 0.137 402500.8
5060 5061 1 0.147 319657.6
5060 5064 1 0.101 363171.2
5061 5062 1 0.110 284512.0
5061 5063 1 0.110 284512.0
5066 5067 1 0.135 402500.8
5067 5068 1 0.137 402500.8
5068 5069 1 0.147 319657.6
5068 5073 1 0.101 363171.2
5069 5070 1 0.143 267776.0
5069 5071 1 0.110 284512.0
5069 5072 1 0.110 284512.0
5075 5076 1 0.135 402500.8
5076 5077 1 0.137 402500.8
5077 5078 1 0.147 319657.6
5077 5082 1 0.101 363171.2
5078 5079 1 0.143 267776.0
5078 5080 1 0.110 284512.0
5078 5081 1 0.110 284512.0
5084 5085 1 0.135 402500.8
5085 5086 1 0.137 402500.8
5086 5087 1 0.147 319657.6
5086 5091 1 0.101 363171.2
5087 5088 1 0.143 267776.0
5087 5089 1 0.110 284512.0
5087 5090 1 0.110 284512.0
5093 5094 1 0.135 402500.8
5094 5095 1 0.137 402500.8
5095 5096 1 0.147 319657.6
5095 5101 1 0.101 363171.2
5096 5097 1 0.143 267776.0
5096 5099 1 0.110 284512.0
5096 5100 1 0.110 284512.0
5097 5098 1 0.098 462750.4
5103 5104 1 0.135 402500.8
5104 5105 1 0.137 402500.8
5105 5106 1 0.147 319657.6
5105 5110 1 0.101 363171.2
5106 5107 1 0.143 267776.0
5106 5108 1 0.110 284512.0
5106 5109 1 0.110 284512.0
5112 5113 1 0.135 402500.8
5113 5114 1 0.137 402500.8
5114 5115 1 0.147 319657.6
5114 5120 1 0.101 363171.2
5115 5116 1 0.143 267776.0
5115 5118 1 0.110 284512.0
5115 5119 1 0.110 284512.0
5116 5117 1 0.097 462750.4
5122 5123 1 0.135 402500.8
5123 5124 1 0.137 402500.8
5124 5125 1 0.147 319657.6
5124 5130 1 0.101 363171.2
5125 5126 1 0.143 267776.0
5125 5128 1 0.110 284512.0
5125 5129 1 0.110 284512.0
5126 5127 1 0.098 462750.4
5132 5133 1 0.135 402500.8
5133 5134 1 0.137 402500.8
5134 5135 1 0.147 319657.6
5134 5139 1 0.101 363171.2
5135 5136 1 0.143 267776.0
5135 5137 1 0.110 284512.0
5135 5138 1 0.110 284512.0
5141 5142 1 0.135 402500.8
5142 5143 1 0.137 402500.8
5143 5144 1 0.147 319657.6
5143 5148 1 0.101 363171.2
5144 5145 1 0.143 267776.0
5144 5146 1 0.110 284512.0
5144 5147 1 0.110 284512.0
5150 5151 1 0.135 402500.8
5151 5152 1 0.137 402500.8
5152 5153 1 0.147 319657.6
5152 5156 1 0.101 363171.2
5153 5154 1 0.110 284512.0
5153 5155 1 0.110 284512.0
5158 5159 1 0.135 402500.8
5159 5160 1 0.137 402500.8
5160 5161 1 0.147 319657.6
5160 5165 1 0.101 363171.2
5161 5162 1 0.143 267776.0
5161 5163 1 0.110 284512.0
5161 5164 1 0.110 284512.0
5167 5168 1 0.135 402500.8
5168 5169 1 0.137 402500.8
5169 5170 1 0.147 319657.6
5169 5174 1 0.101 363171.2
5170 5171 1 0.143 267776.0
5170 5172 1 0.110 284512.0
5170 5173 1 0.110 284512.0
5176 5177 1 0.135 402500.8
5177 5178 1 0.137 402500.8
5178 5179 1 0.147 319657.6
5178 5182 1 0.101 363171.2
5179 5180 1 0.110 284512.0
5179 5181 1 0.110 284512.0
5184 5185 1 0.135 402500.8
5185 5186 1 0.137 402500.8
5186 5187 1 0.147 319657.6
5186 5191 1 0.101 363171.2
5187 5188 1 0.143 267776.0
5187 5189 1 0.110 284512.0
5187 5190 1 0.110 284512.0
5193 5194 1 0.135 402500.8
5194 5195 1 0.137 402500.8
5195 5196 1 0.147 319657.6
5195 5200 1 0.101 363171.2
5196 5197 1 0.143 267776.0
5196 5198 1 0.110 284512.0
5196 5199 1 0.110 284512.0
5202 5203 1 0.135 402500.8
5203 5204 1 0.137 402500.8
5204 5205 1 0.147 319657.6
5204 5209 1 0.101 363171.2
5205 5206 1 0.143 267776.0
5205 5207 1 0.110 284512.0
5205 5208 1 0.110 284512.0
5211 5212 1 0.135 402500.8
5212 5213 1 0.137 402500.8
5213 5214 1 0.147 319657.6
5213 5219 1 0.101 363171.2
5214 5215 1 0.143 267776.0
5214 5217 1 0.110 284512.0
5214 5218 1 0.110 284512.0
5215 5216 1 0.098 462750.4
5221 5222 1 0.135 402500.8
5222 5223 1 0.137 402500.8
5223 5224 1 0.147 319657.6
5223 5228 1 0.101 363171.2
5224 5225 1 0.143 267776.0
5224 5226 1 0.110 284512.0
5224 5227 1 0.110 284512.0
5230 5231 1 0.135 402500.8
5231 5232 1 0.137 402500.8
5232 5233 1 0.147 319657.6
5232 5236 1 0.101 363171.2
5233 5234 1 0.110 284512.0
5233 5235 1 0.110 284512.0
5238 5239 1 0.135 402500.8
5239 5240 1 0.137 402500.8
5240 5241 1 0.147 319657.6
5240 5245 1 0.101 363171.2
5241 5242 1 0.143 267776.0
5241 5243 1 0.110 284512.0
5241 5244 1 0.110 284512.0
5247 5248 1 0.135 402500.8
5248 5249 1 0.137 402500.8
5249 5250 1 0.147 319657.6
5249 5253 1 0.101 363171.2
5250 5251 1 0.110 284512.0
5250 5252 1 0.110 284512.0
5255 5256 1 0.135 402500.8
5256 5257 1 0.137 402500.8
5257 5258 1 0.147 319657.6
5257 5263 1 0.101 363171.2
5258 5259 1 0.143 267776.0
5258 5261 1 0.110 284512.0
5258 5262 1 0.110 284512.0
5259 5260 1 0.098 462750.4
5265 5266 1 0.135 402500.8
5266 5267 1 0.137 402500.8
5267 5268 1 0.147 319657.6
5267 5272 1 0.101 363171.2
5268 5269 1 0.143 267776.0
5268 5270 1 0.110 284512.0
5268 5271 1 0.110 284512.0
5274 5275 1 0.135 402500.8
5275 5276 1 0.137 402500.8
5276 5277 1 0.147 319657.6
5276 5281 1 0.101 363171.2
5277 5278 1 0.143 267776.0
5277 5279 1 0.110 284512.0
5277 5280 1 0.110 284512.0
5283 5284 1 0.135 402500.8
5284 5285 1 0.137 402500.8
5285 5286 1 0.147 319657.6
5285 5289 1 0.101 363171.2
5286 5287 1 0.110 284512.0
5286 5288 1 0.110 284512.0
5291 5292 1 0.135 402500.8
5292 5293 1 0.137 402500.8
5293 5294 1 0.147 319657.6
5293 5298 1 0.101 363171.2
5294 5295 1 0.143 267776.0
5294 5296 1 0.110 284512.0
5294 5297 1 0.110 284512.0
5300 5301 1 0.135 402500.8
5301 5302 1 0.137 402500.8
5302 5303 1 0.147 319657.6
5302 5306 1 0.101 363171.2
5303 5304 1 0.110 284512.0
5303 5305 1 0.110 284512.0
5308 5309 1 0.135 402500.8
5309 5310 1 0.137 402500.8
5310 5311 1 0.147 319657.6
5310 5314 1 0.101 363171.2
5311 5312 1 0.110 284512.0
5311 5313 1 0.110 284512.0
5316 5317 1 0.135 402500.8
5317 5318 1 0.137 402500.8
5318 5319 1 0.147 319657.6
5318 5323 1 0.101 363171.2
5319 5320 1 0.143 267776.0
5319 5321 1 0.110 284512.0
5319 5322 1 0.110 284512.0
5325 5326 1 0.135 402500.8
5326 5327 1 0.137 402500.8
5327 5328 1 0.147 319657.6
5327 5333 1 0.101 363171.2
5328 5329 1 0.143 267776.0
5328 5331 1 0.110 284512.0
5328 5332 1 0.110 284512.0
5329 5330 1 0.097 462750.4
5335 5336 1 0.135 402500.8
5336 5337 1 0.137 402500.8
5337 5338 1 0.147 319657.6
5337 5341 1 0.101 363171.2
5338 5339 1 0.110 284512.0
5338 5340 1 0.110 284512.0
5343 5344 1 0.135 402500.8
5344 5345 1 0.137 402500.8
5345 5346 1 0.147 319657.6
5345 5349 1 0.101 363171.2
5346 5347 1 0.110 284512.0
5346 5348 1 0.110 284512.0
5351 5352 1 0.135 402500.8
5352 5353 1 0.137 402500.8
5353 5354 1 0.147 319657.6
5353 5357 1 0.101 363171.2
5354 5355 1 0.110 284512.0
5354 5356 1 0.110 284512.0
5359 5360 1 0.135 402500.8
5360 5361 1 0.137 402500.8
5361 5362 1 0.147 319657.6
5361 5366 1 0.101 363171.2
5362 5363 1 0.143 267776.0
5362 5364 1 0.110 284512.0
5362 5365 1 0.110 284512.0
5368 5369 1 0.135 402500.8
5369 5370 1 0.137 402500.8
5370 5371 1 0.147 319657.6
5370 5374 1 0.101 363171.2
5371 5372 1 0.110 284512.0
5371 5373 1 0.110 284512.0
5376 5377 1 0.135 402500.8
5377 5378 1 0.137 402500.8
5378 5379 1 0.147 319657.6
5378 5384 1 0.101 363171.2
5379 5380 1 0.143 267776.0
5379 5382 1 0.110 284512.0
5379 5383 1 0.110 284512.0
5380 5381 1 0.097 462750.4
5386 5387 1 0.135 402500.8
5387 5388 1 0.137 402500.8
5388 5389 1 0.147 319657.6
5388 5394 1 0.101 363171.2
5389 5390 1 0.143 267776.0
5389 5392 1 0.110 284512.0
5389 5393 1 0.110 284512.0
5390 5391 1 0.098 462750.4
5396 5397 1 0.135 402500.8
5397 5398 1 0.137 402500.8
5398 5399 1 0.147 319657.6
5398 5402 1 0.101 363171.2
5399 5400 1 0.110 284512.0
5399 5401 1 0.110 284512.0
5404 5405 1 0.135 402500.8
5405 5406 1 0.137 402500.8
5406 5407 1 0.147 319657.6
5406 5410 1 0.101 363171.2
5407 5408 1 0.110 284512.0
5407 5409 1 0.110 284512.0
5412 5413 1 0.135 402500.8
5413 5414 1 0.137 402500.8
5414 5415 1 0.147 319657.6
5414 5418 1 0.101 363171.2
5415 5416 1 0.110 284512.0
5415 5417 1 0.110 284512.0
5420 5421 1 0.135 402500.8
5421 5422 1 0.137 402500.8
5422 5423 1 0.147 319657.6
5422 5426 1 0.101 363171.2
5423 5424 1 0.110 284512.0
5423 5425 1 0.110 284512.0
5428 5429 1 0.135 402500.8
5429 5430 1 0.137 402500.8
5430 5431 1 0.147 319657.6
5430 5435 1 0.101 363171.2
5431 5432 1 0.143 267776.0
5431 5433 1 0.110 284512.0
5431 5434 1 0.110 284512.0
5437 5438 1 0.135 402500.8
5438 5439 1 0.137 402500.8
5439 5440 1 0.147 319657.6
5439 5444 1 0.101 363171.2
5440 5441 1 0.143 267776.0
5440 5442 1 0.110 284512.0
5440 5443 1 0.110 284512.0
5446 5447 1 0.135 402500.8
5447 5448 1 0.137 402500.8
5448 5449 1 0.147 319657.6
5448 5453 1 0.101 363171.2
5449 5450 1 0.143 267776.0
5449 5451 1 0.110 284512.0
5449 5452 1 0.110 284512.0
5455 5456 1 0.135 402500.8
5456 5457 1 0.137 402500.8
5457 5458 1 0.147 319657.6
5457 5462 1 0.101 363171.2
5458 5459 1 0.143 267776.0
5458 5460 1 0.110 284512.0
5458 5461 1 0.110 284512.0
5464 5465 1 0.135 402500.8
5465 5466 1 0.137 402500.8
5466 5467 1 0.147 319657.6
5466 5470 1 0.101 363171.2
5467 5468 1 0.110 284512.0
5467 5469 1 0.110 284512.0
5472 5473 1 0.135 402500.8
5473 5474 1 0.137 402500.8
5474 5475 1 0.147 319657.6
5474 5479 1 0.101 363171.2
5475 5476 1 0.143 267776.0
5475 5477 1 0.110 284512.0
5475 5478 1 0.110 284512.0
5481 5482 1 0.135 402500.8
5482 5483 1 0.137 402500.8
5483 5484 1 0.147 319657.6
5483 5488 1 0.101 363171.2
5484 5485 1 0.143 267776.0
5484 5486 1 0.110 284512.0
5484 5487 1 0.110 284512.0
5490 5491 1 0.135 402500.8
5491 5492 1 0.137 402500.8
5492 5493 1 0.147 319657.6
5492 5496 1 0.101 363171.2
5493 5494 1 0.110 284512.0
5493 5495 1 0.110 284512.0
5498 5499 1 0.135 402500.8
5499 5500 1 0.137 402500.8
5500 5501 1 0.147 319657.6
5500 5506 1 0.101 363171.2
5501 5502 1 0.143 267776.0
5501 5504 1 0.110 284512.0
5501 5505 1 0.110 284512.0
5502 5503 1 0.098 462750.4
5508 5509 1 0.135 402500.8
5509 5510 1 0.137 402500.8
5510 5511 1 0.147 319657.6
5510 5514 1 0.101 363171.2
5511 5512 1 0.110 284512.0
5511 5513 1 0.110 284512.0
5516 5517 1 0.135 402500.8
5517 5518 1 0.137 402500.8
5518 5519 1 0.147 319657.6
5518 5522 1 0.101 363171.2
5519 5520 1 0.110 284512.0
5519 5521 1 0.110 284512.0
5524 5525 1 0.135 402500.8
5525 5526 1 0.137 402500.8
5526 5527 1 0.147 319657.6
5526 5531 1 0.101 363171.2
5527 5528 1 0.143 267776.0
5527 5529 1 0.110 284512.0
5527 5530 1 0.110 284512.0
5533 5534 1 0.135 402500.8
5534 5535 1 0.137 402500.8
5535 5536 1 0.147 319657.6
5535 5540 1 0.101 363171.2
5536 5537 1 0.143 267776.0
5536 5538 1 0.110 284512.0
5536 5539 1 0.110 284512.0
5542 5543 1 0.135 402500.8
5543 5544 1 0.137 402500.8
5544 5545 1 0.147 319657.6
5544 5548 1 0.101 363171.2
5545 5546 1 0.110 284512.0
5545 5547 1 0.110 284512.0
5550 5551 1 0.135 402500.8
5551 5552 1 0.137 402500.8
5552 5553 1 0.147 319657.6
5552 5558 1 0.101 363171.2
5553 5554 1 0.143 267776.0
5553 5556 1 0.110 284512.0
5553 5557 1 0.110 284512.0
5554 5555 1 0.098 462750.4
5560 5561 1 0.135 402500.8
5561 5562 1 0.137 402500.8
5562 5563 1 0.147 319657.6
5562 5567 1 0.101 363171.2
5563 5564 1 0.143 267776.0
5563 5565 1 0.110 284512.0
5563 5566 1 0.110 284512.0
5569 5570 1 0.135 402500.8
5570 5571 1 0.137 402500.8
5571 5572 1 0.147 319657.6
5571 5576 1 0.101 363171.2
5572 5573 1 0.143 267776.0
5572 5574 1 0.110 284512.0
5572 5575 1 0.110 284512.0
5578 5579 1 0.135 402500.8
5579 5580 1 0.137 402500.8
5580 5581 1 0.147 319657.6
5580 5584 1 0.101 363171.2
5581 5582 1 0.110 284512.0
5581 5583 1 0.110 284512.0
5586 5587 1 0.135 402500.8
5587 5588 1 0.137 402500.8
5588 5589 1 0.147 319657.6
5588 5592 1 0.101 363171.2
5589 5590 1 0.110 284512.0
5589 5591 1 0.110 284512.0
5594 5595 1 0.135 402500.8
5595 5596 1 0.137 402500.8
5596 5597 1 0.147 319657.6
5596 5600 1 0.101 363171.2
5597 5598 1 0.110 284512.0
5597 5599 1 0.110 284512.0
5602 5603 1 0.135 402500.8
5603 5604 1 0.137 402500.8
5604 5605 1 0.147 319657.6
5604 5608 1 0.101 363171.2
5605 5606 1 0.110 284512.0
5605 5607 1 0.110 284512.0
5610 5611 1 0.135 402500.8
5611 5612 1 0.137 402500.8
5612 5613 1 0.147 319657.6
5612 5616 1 0.101 363171.2
5613 5614 1 0.110 284512.0
5613 5615 1 0.110 284512.0
5618 5619 1 0.135 402500.8
5619 5620 1 0.137 402500.8
5620 5621 1 0.147 319657.6
5620 5625 1 0.101 363171.2
5621 5622 1 0.143 267776.0
5621 5623 1 0.110 284512.0
5621 5624 1 0.110 284512.0
5627 5628 1 0.135 402500.8
5628 5629 1 0.137 402500.8
5629 5630 1 0.147 319657.6
5629 5634 1 0.101 363171.2
5630 5631 1 0.143 267776.0
5630 5632 1 0.110 284512.0
5630 5633 1 0.110 284512.0
5636 5637 1 0.135 402500.8
5637 5638 1 0.137 402500.8
5638 5639 1 0.147 319657.6
5638 5642 1 0.101 363171.2
5639 5640 1 0.110 284512.0
5639 5641 1 0.110 284512.0
5644 5645 1 0.135 402500.8
5645 5646 1 0.137 402500.8
5646 5647 1 0.147 319657.6
5646 5651 1 0.101 363171.2
5647 5648 1 0.143 267776.0
5647 5649 1 0.110 284512.0
5647 5650 1 0.110 284512.0
5653 5654 1 0.135 402500.8
5654 5655 1 0.137 402500.8
5655 5656 1 0.147 319657.6
5655 5661 1 0.101 363171.2
5656 5657 1 0.143 267776.0
5656 5659 1 0.110 284512.0
5656 5660 1 0.110 284512.0
5657 5658 1 0.098 462750.4
5663 5664 1 0.135 402500.8
5664 5665 1 0.137 402500.8
5665 5666 1 0.147 319657.6
5665 5669 1 0.101 363171.2
5666 5667 1 0.110 284512.0
5666 5668 1 0.110 284512.0
5671 5672 1 0.135 402500.8
5672 5673 1 0.137 402500.8
5673 5674 1 0.147 319657.6
5673 5678 1 0.101 363171.2
5674 5675 1 0.143 267776.0
5674 5676 1 0.110 284512.0
5674 5677 1 0.110 284512.0
5680 5681 1 0.135 402500.8
5681 5682 1 0.137 402500.8
5682 5683 1 0.147 319657.6
5682 5687 1 0.101 363171.2
5683 5684 1 0.143 267776.0
5683 5685 1 0.110 284512.0
5683 5686 1 0.110 284512.0
5689 5690 1 0.135 402500.8
5690 5691 1 0.137 402500.8
5691 5692 1 0.147 319657.6
5691 5696 1 0.101 363171.2
5692 5693 1 0.143 267776.0
5692 5694 1 0.110 284512.0
5692 5695 1 0.110 284512.0
5698 5699 1 0.135 402500.8
5699 5700 1 0.137 402500.8
5700 5701 1 0.147 319657.6
5700 5705 1 0.101 363171.2
5701 5702 1 0.143 267776.0
5701 5703 1 0.110 284512.0
5701 5704 1 0.110 284512.0
5707 5708 1 0.135 402500.8
5708 5709 1 0.137 402500.8
5709 5710 1 0.147 319657.6
5709 5713 1 0.101 363171.2
5710 5711 1 0.110 284512.0
5710 5712 1 0.110 284512.0
5715 5716 1 0.135 402500.8
5716 5717 1 0.137 402500.8
5717 5718 1 0.147 319657.6
5717 5721 1 0.101 363171.2
5718 5719 1 0.110 284512.0
5718 5720 1 0.110 284512.0
5723 5724 1 0.135 402500.8
5724 5725 1 0.137 402500.8
5725 5726 1 0.147 319657.6
5725 5731 1 0.101 363171.2
5726 5727 1 0.143 267776.0
5726 5729 1 0.110 284512.0
5726 5730 1 0.110 284512.0
5727 5728 1 0.098 462750.4
5733 5734 1 0.135 402500.8
5734 5735 1 0.137 402500.8
5735 5736 1 0.147 319657.6
5735 5740 1 0.101 363171.2
5736 5737 1 0.143 267776.0
5736 5738 1 0.110 284512.0
5736 5739 1 0.110 284512.0
5742 5743 1 0.135 402500.8
5743 5744 1 0.137 402500.8
5744 5745 1 0.147 319657.6
5744 5749 1 0.101 363171.2
5745 5746 1 0.143 267776.0
5745 5747 1 0.110 284512.0
5745 5748 1 0.110 284512.0
5751 5752 1 0.135 402500.8
5752 5753 1 0.137 402500.8
5753 5754 1 0.147 319657.6
5753 5758 1 0.101 363171.2
5754 5755 1 0.143 267776.0
5754 5756 1 0.110 284512.0
5754 5757 1 0.110 284512.0
5760 5761 1 0.135 402500.8
5761 5762 1 0.137 402500.8
5762 5763 1 0.147 319657.6
5762 5767 1 0.101 363171.2
5763 5764 1 0.143 267776.0
5763 5765 1 0.110 284512.0
5763 5766 1 0.110 284512.0
5769 5770 1 0.135 402500.8
5770 5771 1 0.137 402500.8
5771 5772 1 0.147 319657.6
5771 5776 1 0.101 363171.2
5772 5773 1 0.143 267776.0
5772 5774 1 0.110 284512.0
5772 5775 1 0.110 284512.0
5778 5779 1 0.135 402500.8
5779 5780 1 0.137 402500.8
5780 5781 1 0.147 319657.6
5780 5785 1 0.101 363171.2
5781 5782 1 0.143 267776.0
5781 5783 1 0.110 284512.0
5781 5784 1 0.110 284512.0
5787 5788 1 0.135 402500.8
5788 5789 1 0.137 402500.8
5789 5790 1 0.147 319657.6
5789 5794 1 0.101 363171.2
5790 5791 1 0.143 267776.0
5790 5792 1 0.110 284512.0
5790 5793 1 0.110 284512.0
5796 5797 1 0.135 402500.8
5797 5798 1 0.137 402500.8
5798 5799 1 0.147 319657.6
5798 5802 1 0.101 363171.2
5799 5800 1 0.110 284512.0
5799 5801 1 0.110 284512.0
5804 5805 1 0.135 402500.8
5805 5806 1 0.137 402500.8
5806 5807 1 0.147 319657.6
5806 5811 1 0.101 363171.2
5807 5808 1 0.143 267776.0
5807 5809 1 0.110 284512.0
5807 5810 1 0.110 284512.0
5813 5814 1 0.135 402500.8
5814 5815 1 0.137 402500.8
5815 5816 1 0.147 319657.6
5815 5820 1 0.101 363171.2
5816 5817 1 0.143 267776.0
5816 5818 1 0.110 284512.0
5816 5819 1 0.110 284512.0
5822 5823 1 0.135 402500.8
5823 5824 1 0.137 402500.8
5824 5825 1 0.147 319657.6
5824 5828 1 0.101 363171.2
5825 5826 1 0.110 284512.0
5825 5827 1 0.110 284512.0
5830 5831 1 0.135 402500.8
5831 5832 1 0.137 402500.8
5832 5833 1 0.147 319657.6
5832 5836 1 0.101 363171.2
5833 5834 1 0.110 284512.0
5833 5835 1 0.110 284512.0
5838 5839 1 0.135 402500.8
5839 5840 1 0.137 402500.8
5840 5841 1 0.147 319657.6
5840 5844 1 0.101 363171.2
5841 5842 1 0.110 284512.0
5841 5843 1 0.110 284512.0
5846 5847 1 0.135 402500.8
5847 5848 1 0.137 402500.8
5848 5849 1 0.147 319657.6
5848 5853 1 0.101 363171.2
5849 5850 1 0.143 267776.0
5849 5851 1 0.110 284512.0
5849 5852 1 0.110 284512.0
5855 5856 1 0.135 402500.8
5856 5857 1 0.137 402500.8
5857 5858 1 0.147 319657.6
5857 5861 1 0.101 363171.2
5858 5859 1 0.110 284512.0
5858 5860 1 0.110 284512.0
5863 5864 1 0.135 402500.8
5864 5865 1 0.137 402500.8
5865 5866 1 0.147 319657.6
5865 5870 1 0.101 363171.2
5866 5867 1 0.143 267776.0
5866 5868 1 0.110 284512.0
5866 5869 1 0.110 284512.0
5872 5873 1 0.135 402500.8
5873 5874 1 0.137 402500.8
5874 5875 1 0.147 319657.6
5874 5878 1 0.101 363171.2
5875 5876 1 0.110 284512.0
5875 5877 1 0.110 284512.0
5880 5881 1 0.135 402500.8
5881 5882 1 0.137 402500.8
5882 5883 1 0.147 319657.6
5882 5887 1 0.101 363171.2
5883 5884 1 0.143 267776.0
5883 5885 1 0.110 284512.0
5883 5886 1 0.110 284512.0
5889 5890 1 0.135 402500.8
5890 5891 1 0.137 402500.8
5891 5892 1 0.147 319657.6
5891 5895 1 0.101 363171.2
5892 5893 1 0.110 284512.0
5892 5894 1 0.110 284512.0
5897 5898 1 0.135 402500.8
5898 5899 1 0.137 402500.8
5899 5900 1 0.147 319657.6
5899 5903 1 0.101 363171.2
5900 5901 1 0.110 284512.0
5900 5902 1 0.110 284512.0
5905 5906 1 0.135 402500.8
5906 5907 1 0.137 402500.8
5907 5908 1 0.147 319657.6
5907 5912 1 0.101 363171.2
5908 5909 1 0.143 267776.0
5908 5910 1 0.110 284512.0
5908 5911 1 0.110 284512.0
5914 5915 1 0.135 402500.8
5915 5916 1 0.137 402500.8
5916 5917 1 0.147 319657.6
5916 5921 1 0.101 363171.2
5917 5918 1 0.143 267776.0
5917 5919 1 0.110 284512.0
5917 5920 1 0.110 284512.0
5923 5924 1 0.135 402500.8
5924 5925 1 0.137 402500.8
5925 5926 1 0.147 319657.6
5925 5930 1 0.101 363171.2
5926 5927 1 0.143 267776.0
5926 5928 1 0.110 284512.0
5926 5929 1 0.110 284512.0
5932 5933 1 0.135 402500.8
5933 5934 1 0.137 402500.8
5934 5935 1 0.147 319657.6
5934 5938 1 0.101 363171.2
5935 5936 1 0.110 284512.0
5935 5937 1 0.110 284512.0
5940 5941 1 0.135 402500.8
5941 5942 1 0.137 402500.8
5942 5943 1 0.147 319657.6
5942 5947 1 0.101 363171.2
5943 5944 1 0.143 267776.0
5943 5945 1 0.110 284512.0
5943 5946 1 0.110 284512.0
5949 5950 1 0.135 402500.8
5950 5951 1 0.137 402500.8
5951 5952 1 0.147 319657.6
5951 5955 1 0.101 363171.2
5952 5953 1 0.110 284512.0
5952 5954 1 0.110 284512.0
5957 5958 1 0.135 402500.8
5958 5959 1 0.137 402500.8
5959 5960 1 0.147 319657.6
5959 5964 1 0.101 363171.2
5960 5961 1 0.143 267776.0
5960 5962 1 0.110 284512.0
5960 5963 1 0.110 284512.0
5966 5967 1 0.135 402500.8
5967 5968 1 0.137 402500.8
5968 5969 1 0.147 319657.6
5968 5972 1 0.101 363171.2
5969 5970 1 0.110 284512.0
5969 5971 1 0.110 284512.0
5974 5975 1 0.135 402500.8
5975 5976 1 0.137 402500.8
5976 5977 1 0.147 319657.6
5976 5981 1 0.101 363171.2
5977 5978 1 0.143 267776.0
5977 5979 1 0.110 284512.0
5977 5980 1 0.110 284512.0
5983 5984 1 0.135 402500.8
5984 5985 1 0.137 402500.8
5985 5986 1 0.147 319657.6
5985 5990 1 0.101 363171.2
5986 5987 1 0.143 267776.0
5986 5988 1 0.110 284512.0
5986 5989 1 0.110 284512.0
5992 5993 1 0.135 402500.8
5993 5994 1 0.137 402500.8
5994 5995 1 0.147 319657.6
5994 5999 1 0.101 363171.2
5995 5996 1 0.143 267776.0
5995 5997 1 0.110 284512.0
5995 5998 1 0.110 284512.0
6001 6002 1 0.135 402500.8
6002 6003 1 0.137 402500.8
6003 6004 1 0.147 319657.6
6003 6007 1 0.101 363171.2
6004 6005 1 0.110 284512.0
6004 6006 1 0.110 284512.0
6009 6010 1 0.135 402500.8
6010 6011 1 0.137 402500.8
6011 6012 1 0.147 319657.6
6011 6017 1 0.101 363171.2
6012 6013 1 0.143 267776.0
6012 6015 1 0.110 284512.0
6012 6016 1 0.110 284512.0
6013 6014 1 0.098 462750.4
6019 6020 1 0.135 402500.8
6020 6021 1 0.137 402500.8
6021 6022 1 0.147 319657.6
6021 6025 1 0.101 363171.2
6022 6023 1 0.110 284512.0
6022 6024 1 0.110 284512.0
6027 6028 1 0.135 402500.8
6028 6029 1 0.137 402500.8
6029 6030 1 0.147 319657.6
6029 6033 1 0.101 363171.2
6030 6031 1 0.110 284512.0
6030 6032 1 0.110 284512.0
6035 6036 1 0.135 402500.8
6036 6037 1 0.137 402500.8
6037 6038 1 0.147 319657.6
6037 6041 1 0.101 363171.2
6038 6039 1 0.110 284512.0
6038 6040 1 0.110 284512.0
6043 6044 1 0.135 402500.8
6044 6045 1 0.137 402500.8
6045 6046 1 0.147 319657.6
6045 6050 1 0.101 363171.2
6046 6047 1 0.143 267776.0
6046 6048 1 0.110 284512.0
6046 6049 1 0.110 284512.0
6052 6053 1 0.135 402500.8
6053 6054 1 0.137 402500.8
6054 6055 1 0.147 319657.6
6054 6060 1 0.101 363171.2
6055 6056 1 0.143 267776.0
6055 6058 1 0.110 284512.0
6055 6059 1 0.110 284512.0
6056 6057 1 0.097 462750.4
6062 6063 1 0.135 402500.8
6063 6064 1 0.137 402500.8
6064 6065 1 0.147 319657.6
6064 6068 1 0.101 363171.2
6065 6066 1 0.110 284512.0
6065 6067 1 0.110 284512.0
6070 6071 1 0.135 402500.8
6071 6072 1 0.137 402500.8
6072 6073 1 0.147 319657.6
6072 6077 1 0.101 363171.2
6073 6074 1 0.143 267776.0
6073 6075 1 0.110 284512.0
6073 6076 1 0.110 284512.0
6079 6080 1 0.135 402500.8
6080 6081 1 0.137 402500.8
6081 6082 1 0.147 319657.6
6081 6086 1 0.101 363171.2
6082 6083 1 0.143 267776.0
6082 6084 1 0.110 284512.0
6082 6085 1 0.110 284512.0
6088 6089 1 0.135 402500.8
6089 6090 1 0.137 402500.8
6090 6091 1 0.147 319657.6
6090 6095 1 0.101 363171.2
6091 6092 1 0.143 267776.0
6091 6093 1 0.110 284512.0
6091 6094 1 0.110 284512.0
6097 6098 1 0.135 402500.8
6098 6099 1 0.137 402500.8
6099 6100 1 0.147 319657.6
6099 6104 1 0.101 363171.2
6100 6101 1 0.143 267776.0
6100 6102 1 0.110 284512.0
6100 6103 1 0.110 284512.0
6106 6107 1 0.135 402500.8
6107 6108 1 0.137 402500.8
6108 6109 1 0.147 319657.6
6108 6112 1 0.101 363171.2
6109 6110 1 0.110 284512.0
6109 6111 1 0.110 284512.0
6114 6115 1 0.135 402500.8
6115 6116 1 0.137 402500.8
6116 6117 1 0.147 319657.6
6116 6121 1 0.101 363171.2
6117 6118 1 0.143 267776.0
6117 6119 1 0.110 284512.0
6117 6120 1 0.110 284512.0
6123 6124 1 0.135 402500.8
6124 6125 1 0.137 402500.8
6125 6126 1 0.147 319657.6
6125 6130 1 0.101 363171.2
6126 6127 1 0.143 267776.0
6126 6128 1 0.110 284512.0
6126 6129 1 0.110 284512.0
6132 6133 1 0.135 402500.8
6133 6134 1 0.137 402500.8
6134 6135 1 0.147 319657.6
6134 6138 1 0.101 363171.2
6135 6136 1 0.110 284512.0
6135 6137 1 0.110 284512.0
6140 6141 1 0.135 402500.8
6141 6142 1 0.137 402500.8
6142 6143 1 0.147 319657.6
6142 6147 1 0.101 363171.2
6143 6144 1 0.143 267776.0
6143 6145 1 0.110 284512.0
6143 6146 1 0.110 284512.0
6149 6150 1 0.135 402500.8
6150 6151 1 0.137 402500.8
6151 6152 1 0.147 319657.6
6151 6156 1 0.101 363171.2
6152 6153 1 0.143 267776.0
6152 6154 1 0.110 284512.0
6152 6155 1 0.110 284512.0
6158 6159 1 0.135 402500.8
6159 6160 1 0.137 402500.8
6160 6161 1 0.147 319657.6
6160 6165 1 0.101 363171.2
6161 6162 1 0.143 267776.0
6161 6163 1 0.110 284512.0
6161 6164 1 0.110 284512.0
6167 6168 1 0.135 402500.8
6168 6169 1 0.137 402500.8
6169 6170 1 0.147 319657.6
6169 6175 1 0.101 363171.2
6170 6171 1 0.143 267776.0
6170 6173 1 0.110 284512.0
6170 6174 1 0.110 284512.0
6171 6172 1 0.098 462750.4
6177 6178 1 0.135 402500.8
6178 6179 1 0.137 402500.8
6179 6180 1 0.147 319657.6
6179 6184 1 0.101 363171.2
6180 6181 1 0.143 267776.0
6180 6182 1 0.110 284512.0
6180 6183 1 0.110 284512.0
6186 6187 1 0.135 402500.8
6187 6188 1 0.137 402500.8
6188 6189 1 0.147 319657.6
6188 6193 1 0.101 363171.2
6189 6190 1 0.143 267776.0
6189 6191 1 0.110 284512.0
6189 6192 1 0.110 284512.0
6195 6196 1 0.135 402500.8
6196 6197 1 0.137 402500.8
6197 6198 1 0.147 319657.6
6197 6201 1 0.101 363171.2
6198 6199 1 0.110 284512.0
6198 6200 1 0.110 284512.0
6203 6204 1 0.135 402500.8
6204 6205 1 0.137 402500.8
6205 6206 1 0.147 319657.6
6205 6210 1 0.101 363171.2
6206 6207 1 0.143 267776.0
6206 6208 1 0.110 284512.0
6206 6209 1 0.110 284512.0
6212 6213 1 0.135 402500.8
6213 6214 1 0.137 402500.8
6214 6215 1 0.147 319657.6
6214 6219 1 0.101 363171.2
6215 6216 1 0.143 267776.0
6215 6217 1 0.110 284512.0
6215 6218 1 0.110 284512.0
6221 6222 1 0.135 402500.8
6222 6223 1 0.137 402500.8
6223 6224 1 0.147 319657.6
6223 6229 1 0.101 363171.2
6224 6225 1 0.143 267776.0
6224 6227 1 0.110 284512.0
6224 6228 1 0.110 284512.0
6225 6226 1 0.098 462750.4
6231 6232 1 0.135 402500.8
6232 6233 1 0.137 402500.8
6233 6234 1 0.147 319657.6
6233 6238 1 0.101 363171.2
6234 6235 1 0.143 267776.0
6234 6236 1 0.110 284512.0
6234 6237 1 0.110 284512.0
6240 6241 1 0.135 402500.8
6241 6242 1 0.137 402500.8
6242 6243 1 0.147 319657.6
6242 6248 1 0.101 363171.2
6243 6244 1 0.143 267776.0
6243 6246 1 0.110 284512.0
6243 6247 1 0.110 284512.0
6244 6245 1 0.097 462750.4
6250 6251 1 0.135 402500.8
6251 6252 1 0.137 402500.8
6252 6253 1 0.147 319657.6
6252 6256 1 0.101 363171.2
6253 6254 1 0.110 284512.0
6253 6255 1 0.110 284512.0
6258 6259 1 0.135 402500.8
6259 6260 1 0.137 402500.8
6260 6261 1 0.147 319657.6
6260 6266 1 0.101 363171.2
6261 6262 1 0.143 267776.0
6261 6264 1 0.110 284512.0
6261 6265 1 0.110 284512.0
6262 6263 1 0.098 462750.4
6268 6269 1 0.135 402500.8
6269 6270 1 0.137 402500.8
6270 6271 1 0.147 319657.6
6270 6275 1 0.101 363171.2
6271 6272 1 0.143 267776.0
6271 6273 1 0.110 284512.0
6271 6274 1 0.110 284512.0
6277 6278 1 0.135 402500.8
6278 6279 1 0.137 402500.8
6279 6280 1 0.147 319657.6
6279 6283 1 0.101 363171.2
6280 6281 1 0.110 284512.0
6280 6282 1 0.110 284512.0
6285 6286 1 0.135 402500.8
6286 6287 1 0.137 402500.8
6287 6288 1 0.147 319657.6
6287 6292 1 0.101 363171.2
6288 6289 1 0.143 267776.0
6288 6290 1 0.110 284512.0
6288 6291 1 0.110 284512.0
6294 6295 1 0.135 402500.8
6295 6296 1 0.137 402500.8
6296 6297 1 0.147 319657.6
6296 6300 1 0.101 363171.2
6297 6298 1 0.110 284512.0
6297 6299 1 0.110 284512.0
6302 6303 1 0.135 402500.8
6303 6304 1 0.137 402500.8
6304 6305 1 0.147 319657.6
6304 6310 1 0.101 363171.2
6305 6306 1 0.143 267776.0
6305 6308 1 0.110 284512.0
6305 6309 1 0.110 284512.0
6306 6307 1 0.098 462750.4
6312 6313 1 0.135 402500.8
6313 6314 1 0.137 402500.8
6314 6315 1 0.147 319657.6
6314 6319 1 0.101 363171.2
6315 6316 1 0.143 267776.0
6315 6317 1 0.110 284512.0
6315 6318 1 0.110 284512.0
6321 6322 1 0.135 402500.8
6322 6323 1 0.137 402500.8
6323 6324 1 0.147 319657.6
6323 6329 1 0.101 363171.2
6324 6325 1 0.143 267776.0
6324 6327 1 0.110 284512.0
6324 6328 1 0.110 284512.0
6325 6326 1 0.097 462750.4
6331 6332 1 0.135 402500.8
6332 6333 1 0.137 402500.8
6333 6334 1 0.147 319657.6
6333 6339 1 0.101 363171.2
6334 6335 1 0.143 267776.0
6334 6337 1 0.110 284512.0
6334 6338 1 0.110 284512.0
6335 6336 1 0.098 462750.4
6341 6342 1 0.135 402500.8
6342 6343 1 0.137 402500.8
6343 6344 1 0.147 319657.6
6343 6348 1 0.101 363171.2
6344 6345 1 0.143 267776.0
6344 6346 1 0.110 284512.0
6344 6347 1 0.110 284512.0
6350 6351 1 0.135 402500.8
6351 6352 1 0.137 402500.8
6352 6353 1 0.147 319657.6
6352 6357 1 0.101 363171.2
6353 6354 1 0.143 267776.0
6353 6355 1 0.110 284512.0
6353 6356 1 0.110 284512.0
6359 6360 1 0.135 402500.8
6360 6361 1 0.137 402500.8
6361 6362 1 0.147 319657.6
6361 6365 1 0.101 363171.2
6362 6363 1 0.110 284512.0
6362 6364 1 0.110 284512.0
6367 6368 1 0.135 402500.8
6368 6369 1 0.137 402500.8
6369 6370 1 0.147 319657.6
6369 6373 1 0.101 363171.2
6370 6371 1 0.110 284512.0
6370 6372 1 0.110 284512.0
6375 6376 1 0.135 402500.8
6376 6377 1 0.137 402500.8
6377 6378 1 0.147 319657.6
6377 6382 1 0.101 363171.2
6378 6379 1 0.143 267776.0
6378 6380 1 0.110 284512.0
6378 6381 1 0.110 284512.0
6384 6385 1 0.135 402500.8
6385 6386 1 0.137 402500.8
6386 6387 1 0.147 319657.6
6386 6392 1 0.101 363171.2
6387 6388 1 0.143 267776.0
6387 6390 1 0.110 284512.0
6387 6391 1 0.110 284512.0
6388 6389 1 0.098 462750.4
6394 6395 1 0.135 402500.8
6395 6396 1 0.137 402500.8
6396 6397 1 0.147 319657.6
6396 6401 1 0.101 363171.2
6397 6398 1 0.143 267776.0
6397 6399 1 0.110 284512.0
6397 6400 1 0.110 284512.0
6403 6404 1 0.135 402500.8
6404 6405 1 0.137 402500.8
6405 6406 1 0.147 319657.6
6405 6409 1 0.101 363171.2
6406 6407 1 0.110 284512.0
6406 6408 1 0.110 284512.0
6411 6412 1 0.135 402500.8
6412 6413 1 0.137 402500.8
6413 6414 1 0.147 319657.6
6413 6417 1 0.101 363171.2
6414 6415 1 0.110 284512.0
6414 6416 1 0.110 284512.0
6419 6420 1 0.135 402500.8
6420 6421 1 0.137 402500.8
6421 6422 1 0.147 319657.6
6421 6426 1 0.101 363171.2
6422 6423 1 0.143 267776.0
6422 6424 1 0.110 284512.0
6422 6425 1 0.110 284512.0
6428 6429 1 0.135 402500.8
6429 6430 1 0.137 402500.8
6430 6431 1 0.147 319657.6
6430 6435 1 0.101 363171.2
6431 6432 1 0.143 267776.0
6431 6433 1 0.110 284512.0
6431 6434 1 0.110 284512.0
6437 6438 1 0.135 402500.8
6438 6439 1 0.137 402500.8
6439 6440 1 0.147 319657.6
6439 6443 1 0.101 363171.2
6440 6441 1 0.110 284512.0
6440 6442 1 0.110 284512.0
6445 6446 1 0.135 402500.8
6446 6447 1 0.137 402500.8
6447 6448 1 0.147 319657.6
6447 6451 1 0.101 363171.2
6448 6449 1 0.110 284512.0
6448 6450 1 0.110 284512.0
6453 6454 1 0.135 402500.8
6454 6455 1 0.137 402500.8
6455 6456 1 0.147 319657.6
6455 6460 1 0.101 363171.2
6456 6457 1 0.143 267776.0
6456 6458 1 0.110 284512.0
6456 6459 1 0.110 284512.0
6462 6463 1 0.135 402500.8
6463 6464 1 0.137 402500.8
6464 6465 1 0.147 319657.6
6464 6470 1 0.101 363171.2
6465 6466 1 0.143 267776.0
6465 6468 1 0.110 284512.0
6465 6469 1 0.110 284512.0
6466 6467 1 0.098 462750.4
6472 6473 1 0.135 402500.8
6473 6474 1 0.137 402500.8
6474 6475 1 0.147 319657.6
6474 6480 1 0.101 363171.2
6475 6476 1 0.143 267776.0
6475 6478 1 0.110 284512.0
6475 6479 1 0.110 284512.0
6476 6477 1 0.098 462750.4
6482 6483 1 0.135 402500.8
6483 6484 1 0.137 402500.8
6484 6485 1 0.147 319657.6
6484 6489 1 0.101 363171.2
6485 6486 1 0.143 267776.0
6485 6487 1 0.110 284512.0
6485 6488 1 0.110 284512.0
6491 6492 1 0.135 402500.8
6492 6493 1 0.137 402500.8
6493 6494 1 0.147 319657.6
6493 6497 1 0.101 363171.2
6494 6495 1 0.110 284512.0
6494 6496 1 0.110 284512.0
6499 6500 1 0.135 402500.8
6500 6501 1 0.137 402500.8
6501 6502 1 0.147 319657.6
6501 6506 1 0.101 363171.2
6502 6503 1 0.143 267776.0
6502 6504 1 0.110 284512.0
6502 6505 1 0.110 284512.0
6508 6509 1 0.135 402500.8
6509 6510 1 0.137 402500.8
6510 6511 1 0.147 319657.6
6510 6515 1 0.101 363171.2
6511 6512 1 0.143 267776.0
6511 6513 1 0.110 284512.0
6511 6514 1 0.110 284512.0
6517 6518 1 0.135 402500.8
6518 6519 1 0.137 402500.8
6519 6520 1 0.147 319657.6
6519 6523 1 0.101 363171.2
6520 6521 1 0.110 284512.0
6520 6522 1 0.110 284512.0
6525 6526 1 0.135 402500.8
6526 6527 1 0.137 402500.8
6527 6528 1 0.147 319657.6
6527 6531 1 0.101 363171.2
6528 6529 1 0.110 284512.0
6528 6530 1 0.110 284512.0
6533 6534 1 0.135 402500.8
6534 6535 1 0.137 402500.8
6535 6536 1 0.147 319657.6
6535 6540 1 0.101 363171.2
6536 6537 1 0.143 267776.0
6536 6538 1 0.110 284512.0
6536 6539 1 0.110 284512.0
6542 6543 1 0.135 402500.8
6543 6544 1 0.137 402500.8
6544 6545 1 0.147 319657.6
6544 6548 1 0.101 363171.2
6545 6546 1 0.110 284512.0
6545 6547 1 0.110 284512.0
6550 6551 1 0.135 402500.8
6551 6552 1 0.137 402500.8
6552 6553 1 0.147 319657.6
6552 6556 1 0.101 363171.2
6553 6554 1 0.110 284512.0
6553 6555 1 0.110 284512.0
6558 6559 1 0.135 402500.8
6559 6560 1 0.137 402500.8
6560 6561 1 0.147 319657.6
6560 6565 1 0.101 363171.2
6561 6562 1 0.143 267776.0
6561 6563 1 0.110 284512.0
6561 6564 1 0.110 284512.0
6567 6568 1 0.135 402500.8
6568 6569 1 0.137 402500.8
6569 6570 1 0.147 319657.6
6569 6574 1 0.101 363171.2
6570 6571 1 0.143 267776.0
6570 6572 1 0.110 284512.0
6570 6573 1 0.110 284512.0
6576 6577 1 0.135 402500.8
6577 6578 1 0.137 402500.8
6578 6579 1 0.147 319657.6
6578 6582 1 0.101 363171.2
6579 6580 1 0.110 284512.0
6579 6581 1 0.110 284512.0
6584 6585 1 0.135 402500.8
6585 6586 1 0.137 402500.8
6586 6587 1 0.147 319657.6
6586 6590 1 0.101 363171.2
6587 6588 1 0.110 284512.0
6587 6589 1 0.110 284512.0
6592 6593 1 0.135 402500.8
6593 6594 1 0.137 402500.8
6594 6595 1 0.147 319657.6
6594 6599 1 0.101 363171.2
6595 6596 1 0.143 267776.0
6595 6597 1 0.110 284512.0
6595 6598 1 0.110 284512.0
6601 6602 1 0.135 402500.8
6602 6603 1 0.137 402500.8
6603 6604 1 0.147 319657.6
6603 6607 1 0.101 363171.2
6604 6605 1 0.110 284512.0
6604 6606 1 0.110 284512.0
6609 6610 1 0.135 402500.8
6610 6611 1 0.137 402500.8
6611 6612 1 0.147 319657.6
6611 6615 1 0.101 363171.2
6612 6613 1 0.110 284512.0
6612 6614 1 0.110 284512.0
6617 6618 1 0.135 402500.8
6618 6619 1 0.137 402500.8
6619 6620 1 0.147 319657.6
6619 6623 1 0.101 363171.2
6620 6621 1 0.110 284512.0
6620 6622 1 0.110 284512.0
6625 6626 1 0.135 402500.8
6626 6627 1 0.137 402500.8
6627 6628 1 0.147 319657.6
6627 6632 1 0.101 363171.2
6628 6629 1 0.143 267776.0
6628 6630 1 0.110 284512.0
6628 6631 1 0.110 284512.0
6634 6635 1 0.135 402500.8
6635 6636 1 0.137 402500.8
6636 6637 1 0.147 319657.6
6636 6640 1 0.101 363171.2
6637 6638 1 0.110 284512.0
6637 6639 1 0.110 284512.0
6642 6643 1 0.135 402500.8
6643 6644 1 0.137 402500.8
6644 6645 1 0.147 319657.6
6644 6648 1 0.101 363171.2
6645 6646 1 0.110 284512.0
6645 6647 1 0.110 284512.0
6650 6651 1 0.135 402500.8
6651 6652 1 0.137 402500.8
6652 6653 1 0.147 319657.6
6652 6656 1 0.101 363171.2
6653 6654 1 0.110 284512.0
6653 6655 1 0.110 284512.0
6658 6659 1 0.135 402500.8
6659 6660 1 0.137 402500.8
6660 6661 1 0.147 319657.6
6660 6664 1 0.101 363171.2
6661 6662 1 0.110 284512.0
6661 6663 1 0.110 284512.0
6666 6667 1 0.135 402500.8
6667 6668 1 0.137 402500.8
6668 6669 1 0.147 319657.6
6668 6672 1 0.101 363171.2
6669 6670 1 0.110 284512.0
6669 6671 1 0.110 284512.0
6674 6675 1 0.135 402500.8
6675 6676 1 0.137 402500.8
6676 6677 1 0.147 319657.6
6676 6680 1 0.101 363171.2
6677 6678 1 0.110 284512.0
6677 6679 1 0.110 284512.0
6682 6683 1 0.135 402500.8
6683 6684 1 0.137 402500.8
6684 6685 1 0.147 319657.6
6684 6689 1 0.101 363171.2
6685 6686 1 0.143 267776.0
6685 6687 1 0.110 284512.0
6685 6688 1 0.110 284512.0
6691 6692 1 0.135 402500.8
6692 6693 1 0.137 402500.8
6693 6694 1 0.147 319657.6
6693 6698 1 0.101 363171.2
6694 6695 1 0.143 267776.0
6694 6696 1 0.110 284512.0
6694 6697 1 0.110 284512.0
6700 6701 1 0.135 402500.8
6701 6702 1 0.137 402500.8
6702 6703 1 0.147 319657.6
6702 6707 1 0.101 363171.2
6703 6704 1 0.143 267776.0
6703 6705 1 0.110 284512.0
6703 6706 1 0.110 284512.0
6709 6710 1 0.135 402500.8
6710 6711 1 0.137 402500.8
6711 6712 1 0.147 319657.6
6711 6715 1 0.101 363171.2
6712 6713 1 0.110 284512.0
6712 6714 1 0.110 284512.0
6717 6718 1 0.135 402500.8
6718 6719 1 0.137 402500.8
6719 6720 1 0.147 319657.6
6719 6724 1 0.101 363171.2
6720 6721 1 0.143 267776.0
6720 6722 1 0.110 284512.0
6720 6723 1 0.110 284512.0
6726 6727 1 0.135 402500.8
6727 6728 1 0.137 402500.8
6728 6729 1 0.147 319657.6
6728 6733 1 0.101 363171.2
6729 6730 1 0.143 267776.0
6729 6731 1 0.110 284512.0
6729 6732 1 0.110 284512.0
6735 6736 1 0.135 402500.8
6736 6737 1 0.137 402500.8
6737 6738 1 0.147 319657.6
6737 6741 1 0.101 363171.2
6738 6739 1 0.110 284512.0
6738 6740 1 0.110 284512.0
6743 6744 1 0.135 402500.8
6744 6745 1 0.137 402500.8
6745 6746 1 0.147 319657.6
6745 6749 1 0.101 363171.2
6746 6747 1 0.110 284512.0
6746 6748 1 0.110 284512.0
6751 6752 1 0.135 402500.8
6752 6753 1 0.137 402500.8
6753 6754 1 0.147 319657.6
6753 6758 1 0.101 363171.2
6754 6755 1 0.143 267776.0
6754 6756 1 0.110 284512.0
6754 6757 1 0.110 284512.0
6760 6761 1 0.135 402500.8
6761 6762 1 0.137 402500.8
6762 6763 1 0.147 319657.6
6762 6767 1 0.101 363171.2
6763 6764 1 0.143 267776.0
6763 6765 1 0.110 284512.0
6763 6766 1 0.110 284512.0
6769 6770 1 0.135 402500.8
6770 6771 1 0.137 402500.8
6771 6772 1 0.147 319657.6
6771 6776 1 0.101 363171.2
6772 6773 1 0.143 267776.0
6772 6774 1 0.110 284512.0
6772 6775 1 0.110 284512.0
6778 6779 1 0.135 402500.8
6779 6780 1 0.137 402500.8
6780 6781 1 0.147 319657.6
6780 6784 1 0.101 363171.2
6781 6782 1 0.110 284512.0
6781 6783 1 0.110 284512.0
6786 6787 1 0.135 402500.8
6787 6788 1 0.137 402500.8
6788 6789 1 0.147 319657.6
6788 6792 1 0.101 363171.2
6789 6790 1 0.110 284512.0
6789 6791 1 0.110 284512.0
6794 6795 1 0.135 402500.8
6795 6796 1 0.137 402500.8
6796 6797 1 0.147 319657.6
6796 6801 1 0.101 363171.2
6797 6798 1 0.143 267776.0
6797 6799 1 0.110 284512.0
6797 6800 1 0.110 284512.0
6803 6804 1 0.135 402500.8
6804 6805 1 0.137 402500.8
6805 6806 1 0.147 319657.6
6805 6810 1 0.101 363171.2
6806 6807 1 0.143 267776.0
6806 6808 1 0.110 284512.0
6806 6809 1 0.110 284512.0
6812 6813 1 0.135 402500.8
6813 6814 1 0.137 402500.8
6814 6815 1 0.147 319657.6
6814 6818 1 0.101 363171.2
6815 6816 1 0.110 284512.0
6815 6817 1 0.110 284512.0
6820 6821 1 0.135 402500.8
6821 6822 1 0.137 402500.8
6822 6823 1 0.147 319657.6
6822 6827 1 0.101 363171.2
6823 6824 1 0.143 267776.0
6823 6825 1 0.110 284512.0
6823 6826 1 0.110 284512.0
6829 6830 1 0.135 402500.8
6830 6831 1 0.137 402500.8
6831 6832 1 0.147 319657.6
6831 6837 1 0.101 363171.2
6832 6833 1 0.143 267776.0
6832 6835 1 0.110 284512.0
6832 6836 1 0.110 284512.0
6833 6834 1 0.098 462750.4
6839 6840 1 0.135 402500.8
6840 6841 1 0.137 402500.8
6841 6842 1 0.147 319657.6
6841 6845 1 0.101 363171.2
6842 6843 1 0.110 284512.0
6842 6844 1 0.110 284512.0
6847 6848 1 0.135 402500.8
6848 6849 1 0.137 402500.8
6849 6850 1 0.147 319657.6
6849 6853 1 0.101 363171.2
6850 6851 1 0.110 284512.0
6850 6852 1 0.110 284512.0
6855 6856 1 0.135 402500.8
6856 6857 1 0.137 402500.8
6857 6858 1 0.147 319657.6
6857 6861 1 0.101 363171.2
6858 6859 1 0.110 284512.0
6858 6860 1 0.110 284512.0
6863 6864 1 0.135 402500.8
6864 6865 1 0.137 402500.8
6865 6866 1 0.147 319657.6
6865 6869 1 0.101 363171.2
6866 6867 1 0.110 284512.0
6866 6868 1 0.110 284512.0
6871 6872 1 0.135 402500.8
6872 6873 1 0.137 402500.8
6873 6874 1 0.147 319657.6
6873 6878 1 0.101 363171.2
6874 6875 1 0.143 267776.0
6874 6876 1 0.110 284512.0
6874 6877 1 0.110 284512.0
6880 6881 1 0.135 402500.8
6881 6882 1 0.137 402500.8
6882 6883 1 0.147 319657.6
6882 6887 1 0.101 363171.2
6883 6884 1 0.143 267776.0
6883 6885 1 0.110 284512.0
6883 6886 1 0.110 284512.0
6889 6890 1 0.135 402500.8
6890 6891 1 0.137 402500.8
6891 6892 1 0.147 319657.6
6891 6896 1 0.101 363171.2
6892 6893 1 0.143 267776.0
6892 6894 1 0.110 284512.0
6892 6895 1 0.110 284512.0
6898 6899 1 0.135 402500.8
6899 6900 1 0.137 402500.8
6900 6901 1 0.147 319657.6
6900 6904 1 0.101 363171.2
6901 6902 1 0.110 284512.0
6901 6903 1 0.110 284512.0
6906 6907 1 0.135 402500.8
6907 6908 1 0.137 402500.8
6908 6909 1 0.147 319657.6
6908 6912 1 0.101 363171.2
6909 6910 1 0.110 284512.0
6909 6911 1 0.110 284512.0
6914 6915 1 0.135 402500.8
6915 6916 1 0.137 402500.8
6916 6917 1 0.147 319657.6
6916 6920 1 0.101 363171.2
6917 6918 1 0.110 284512.0
6917 6919 1 0.110 284512.0
6922 6923 1 0.135 402500.8
6923 6924 1 0.137 402500.8
6924 6925 1 0.147 319657.6
6924 6929 1 0.101 363171.2
6925 6926 1 0.143 267776.0
6925 6927 1 0.110 284512.0
6925 6928 1 0.110 284512.0
6931 6932 1 0.135 402500.8
6932 6933 1 0.137 402500.8
6933 6934 1 0.147 319657.6
6933 6937 1 0.101 363171.2
6934 6935 1 0.110 284512.0
6934 6936 1 0.110 284512.0
6939 6940 1 0.135 402500.8
6940 6941 1 0.137 402500.8
6941 6942 1 0.147 319657.6
6941 6946 1 0.101 363171.2
6942 6943 1 0.143 267776.0
6942 6944 1 0.110 284512.0
6942 6945 1 0.110 284512.0
6948 6949 1 0.135 402500.8
6949 6950 1 0.137 402500.8
6950 6951 1 0.147 319657.6
6950 6955 1 0.101 363171.2
6951 6952 1 0.143 267776.0
6951 6953 1 0.110 284512.0
6951 6954 1 0.110 284512.0
6957 6958 1 0.135 402500.8
6958 6959 1 0.137 402500.8
6959 6960 1 0.147 319657.6
6959 6963 1 0.101 363171.2
6960 6961 1 0.110 284512.0
6960 6962 1 0.110 284512.0
6965 6966 1 0.135 402500.8
6966 6967 1 0.137 402500.8
6967 6968 1 0.147 319657.6
6967 6971 1 0.101 363171.2
6968 6969 1 0.110 284512.0
6968 6970 1 0.110 284512.0
6973 6974 1 0.135 402500.8
6974 6975 1 0.137 402500.8
6975 6976 1 0.147 319657.6
6975 6980 1 0.101 363171.2
6976 6977 1 0.143 267776.0
6976 6978 1 0.110 284512.0
6976 6979 1 0.110 284512.0
6982 6983 1 0.135 402500.8
6983 6984 1 0.137 402500.8
6984 6985 1 0.147 319657.6
6984 6988 1 0.101 363171.2
6985 6986 1 0.110 284512.0
6985 6987 1 0.110 284512.0
6990 6991 1 0.135 402500.8
6991 6992 1 0.137 402500.8
6992 6993 1 0.147 319657.6
6992 6996 1 0.101 363171.2
6993 6994 1 0.110 284512.0
6993 6995 1 0.110 284512.0
6998 6999 1 0.135 402500.8
6999 7000 1 0.137 402500.8
7000 7001 1 0.147 319657.6
7000 7005 1 0.101 363171.2
7001 7002 1 0.143 267776.0
7001 7003 1 0.110 284512.0
7001 7004 1 0.110 284512.0
7007 7008 1 0.135 402500.8
7008 7009 1 0.137 402500.8
7009 7010 1 0.147 319657.6
7009 7015 1 0.101 363171.2
7010 7011 1 0.143 267776.0
7010 7013 1 0.110 284512.0
7010 7014 1 0.110 284512.0
7011 7012 1 0.098 462750.4
7017 7018 1 0.135 402500.8
7018 7019 1 0.137 402500.8
7019 7020 1 0.147 319657.6
7019 7024 1 0.101 363171.2
7020 7021 1 0.143 267776.0
7020 7022 1 0.110 284512.0
7020 7023 1 0.110 284512.0
7026 7027 1 0.135 402500.8
7027 7028 1 0.137 402500.8
7028 7029 1 0.147 319657.6
7028 7033 1 0.101 363171.2
7029 7030 1 0.143 267776.0
7029 7031 1 0.110 284512.0
7029 7032 1 0.110 284512.0
7035 7036 1 0.135 402500.8
7036 7037 1 0.137 402500.8
7037 7038 1 0.147 319657.6
7037 7042 1 0.101 363171.2
7038 7039 1 0.143 267776.0
7038 7040 1 0.110 284512.0
7038 7041 1 0.110 284512.0
7044 7045 1 0.135 402500.8
7045 7046 1 0.137 402500.8
7046 7047 1 0.147 319657.6
7046 7052 1 0.101 363171.2
7047 7048 1 0.143 267776.0
7047 7050 1 0.110 284512.0
7047 7051 1 0.110 284512.0
7048 7049 1 0.097 462750.4
7054 7055 1 0.135 402500.8
7055 7056 1 0.137 402500.8
7056 7057 1 0.147 319657.6
7056 7060 1 0.101 363171.2
7057 7058 1 0.110 284512.0
7057 7059 1 0.110 284512.0
7062 7063 1 0.135 402500.8
7063 7064 1 0.137 402500.8
7064 7065 1 0.147 319657.6
7064 7068 1 0.101 363171.2
7065 7066 1 0.110 284512.0
7065 7067 1 0.110 284512.0
7070 7071 1 0.135 402500.8
7071 7072 1 0.137 402500.8
7072 7073 1 0.147 319657.6
7072 7076 1 0.101 363171.2
7073 7074 1 0.110 284512.0
7073 7075 1 0.110 284512.0
7078 7079 1 0.135 402500.8
7079 7080 1 0.137 402500.8
7080 7081 1 0.147 319657.6
7080 7084 1 0.101 363171.2
7081 7082 1 0.110 284512.0
7081 7083 1 0.110 284512.0
7086 7087 1 0.135 402500.8
7087 7088 1 0.137 402500.8
7088 7089 1 0.147 319657.6
7088 7094 1 0.101 363171.2
7089 7090 1 0.143 267776.0
7089 7092 1 0.110 284512.0
7089 7093 1 0.110 284512.0
7090 7091 1 0.098 462750.4
7096 7097 1 0.135 402500.8
7097 7098 1 0.137 402500.8
7098 7099 1 0.147 319657.6
7098 7103 1 0.101 363171.2
7099 7100 1 0.143 267776.0
7099 7101 1 0.110 284512.0
7099 7102 1 0.110 284512.0
7105 7106 1 0.135 402500.8
7106 7107 1 0.137 402500.8
7107 7108 1 0.147 319657.6
7107 7112 1 0.101 363171.2
7108 7109 1 0.143 267776.0
7108 7110 1 0.110 284512.0
7108 7111 1 0.110 284512.0
7114 7115 1 0.135 402500.8
7115 7116 1 0.137 402500.8
7116 7117 1 0.147 319657.6
7116 7120 1 0.101 363171.2
7117 7118 1 0.110 284512.0
7117 7119 1 0.110 284512.0
7122 7123 1 0.135 402500.8
7123 7124 1 0.137 402500.8
7124 7125 1 0.147 319657.6
7124 7129 1 0.101 363171.2
7125 7126 1 0.143 267776.0
7125 7127 1 0.110 284512.0
7125 7128 1 0.110 284512.0
7131 7132 1 0.135 402500.8
7132 7133 1 0.137 402500.8
7133 7134 1 0.147 319657.6
7133 7137 1 0.101 363171.2
7134 7135 1 0.110 284512.0
7134 7136 1 0.110 284512.0
7139 7140 1 0.135 402500.8
7140 7141 1 0.137 402500.8
7141 7142 1 0.147 319657.6
7141 7145 1 0.101 363171.2
7142 7143 1 0.110 284512.0
7142 7144 1 0.110 284512.0
7147 7148 1 0.135 402500.8
7148 7149 1 0.137 402500.8
7149 7150 1 0.147 319657.6
7149 7153 1 0.101 363171.2
7150 7151 1 0.110 284512.0
7150 7152 1 0.110 284512.0
7155 7156 1 0.135 402500.8
7156 7157 1 0.137 402500.8
7157 7158 1 0.147 319657.6
7157 7162 1 0.101 363171.2
7158 7159 1 0.143 267776.0
7158 7160 1 0.110 284512.0
7158 7161 1 0.110 284512.0
7164 7165 1 0.135 402500.8
7165 7166 1 0.137 402500.8
7166 7167 1 0.147 319657.6
7166 7171 1 0.101 363171.2
7167 7168 1 0.143 267776.0
7167 7169 1 0.110 284512.0
7167 7170 1 0.110 284512.0
7173 7174 1 0.135 402500.8
7174 7175 1 0.137 402500.8
7175 7176 1 0.147 319657.6
7175 7180 1 0.101 363171.2
7176 7177 1 0.143 267776.0
7176 7178 1 0.110 284512.0
7176 7179 1 0.110 284512.0
7182 7183 1 0.135 402500.8
7183 7184 1 0.137 402500.8
7184 7185 1 0.147 319657.6
7184 7190 1 0.101 363171.2
7185 7186 1 0.143 267776.0
7185 7188 1 0.110 284512.0
7185 7189 1 0.110 284512.0
7186 7187 1 0.098 462750.4
7192 7193 1 0.135 402500.8
7193 7194 1 0.137 402500.8
7194 7195 1 0.147 319657.6
7194 7198 1 0.101 363171.2
7195 7196 1 0.110 284512.0
7195 7197 1 0.110 284512.0
7200 7201 1 0.135 402500.8
7201 7202 1 0.137 402500.8
7202 7203 1 0.147 319657.6
7202 7206 1 0.101 363171.2
7203 7204 1 0.110 284512.0
7203 7205 1 0.110 284512.0
7208 7209 1 0.135 402500.8
7209 7210 1 0.137 402500.8
7210 7211 1 0.147 319657.6
7210 7214 1 0.101 363171.2
7211 7212 1 0.110 284512.0
7211 7213 1 0.110 284512.0
7216 7217 1 0.135 402500.8
7217 7218 1 0.137 402500.8
7218 7219 1 0.147 319657.6
7218 7223 1 0.101 363171.2
7219 7220 1 0.143 267776.0
7219 7221 1 0.110 284512.0
7219 7222 1 0.110 284512.0
7225 7226 1 0.135 402500.8
7226 7227 1 0.137 402500.8
7227 7228 1 0.147 319657.6
7227 7232 1 0.101 363171.2
7228 7229 1 0.143 267776.0
7228 7230 1 0.110 284512.0
7228 7231 1 0.110 284512.0
7234 7235 1 0.135 402500.8
7235 7236 1 0.137 402500.8
7236 7237 1 0.147 319657.6
7236 7240 1 0.101 363171.2
7237 7238 1 0.110 284512.0
7237 7239 1 0.110 284512.0
7242 7243 1 0.135 402500.8
7243 7244 1 0.137 402500.8
7244 7245 1 0.147 319657.6
7244 7248 1 0.101 363171.2
7245 7246 1 0.110 284512.0
7245 7247 1 0.110 284512.0
7250 7251 1 0.135 402500.8
7251 7252 1 0.137 402500.8
7252 7253 1 0.147 319657.6
7252 7258 1 0.101 363171.2
7253 7254 1 0.143 267776.0
7253 7256 1 0.110 284512.0
7253 7257 1 0.110 284512.0
7254 7255 1 0.097 462750.4
7260 7261 1 0.135 402500.8
7261 7262 1 0.137 402500.8
7262 7263 1 0.147 319657.6
7262 7266 1 0.101 363171.2
7263 7264 1 0.110 284512.0
7263 7265 1 0.110 284512.0
7268 7269 1 0.135 402500.8
7269 7270 1 0.137 402500.8
7270 7271 1 0.147 319657.6
7270 7274 1 0.101 363171.2
7271 7272 1 0.110 284512.0
7271 7273 1 0.110 284512.0
7276 7277 1 0.135 402500.8
7277 7278 1 0.137 402500.8
7278 7279 1 0.147 319657.6
7278 7283 1 0.101 363171.2
7279 7280 1 0.143 267776.0
7279 7281 1 0.110 284512.0
7279 7282 1 0.110 284512.0
7285 7286 1 0.135 402500.8
7286 7287 1 0.137 402500.8
7287 7288 1 0.147 319657.6
7287 7291 1 0.101 363171.2
7288 7289 1 0.110 284512.0
7288 7290 1 0.110 284512.0
7293 7294 1 0.135 402500.8
7294 7295 1 0.137 402500.8
7295 7296 1 0.147 319657.6
7295 7301 1 0.101 363171.2
7296 7297 1 0.143 267776.0
7296 7299 1 0.110 284512.0
7296 7300 1 0.110 284512.0
7297 7298 1 0.098 462750.4
7303 7304 1 0.135 402500.8
7304 7305 1 0.137 402500.8
7305 7306 1 0.147 319657.6
7305 7310 1 0.101 363171.2
7306 7307 1 0.143 267776.0
7306 7308 1 0.110 284512.0
7306 7309 1 0.110 284512.0
7312 7313 1 0.135 402500.8
7313 7314 1 0.137 402500.8
7314 7315 1 0.147 319657.6
7314 7319 1 0.101 363171.2
7315 7316 1 0.143 267776.0
7315 7317 1 0.110 284512.0
7315 7318 1 0.110 284512.0
7321 7322 1 0.135 402500.8
7322 7323 1 0.137 402500.8
7323 7324 1 0.147 319657.6
7323 7328 1 0.101 363171.2
7324 7325 1 0.143 267776.0
7324 7326 1 0.110 284512.0
7324 7327 1 0.110 284512.0
7330 7331 1 0.135 402500.8
7331 7332 1 0.137 402500.8
7332 7333 1 0.147 319657.6
7332 7338 1 0.101 363171.2
7333 7334 1 0.143 267776.0
7333 7336 1 0.110 284512.0
7333 7337 1 0.110 284512.0
7334 7335 1 0.097 462750.4
7340 7341 1 0.135 402500.8
7341 7342 1 0.137 402500.8
7342 7343 1 0.147 319657.6
7342 7346 1 0.101 363171.2
7343 7344 1 0.110 284512.0
7343 7345 1 0.110 284512.0
7348 7349 1 0.135 402500.8
7349 7350 1 0.137 402500.8
7350 7351 1 0.147 319657.6
7350 7354 1 0.101 363171.2
7351 7352 1 0.110 284512.0
7351 7353 1 0.110 284512.0
7356 7357 1 0.135 402500.8
7357 7358 1 0.137 402500.8
7358 7359 1 0.147 319657.6
7358 7362 1 0.101 363171.2
7359 7360 1 0.110 284512.0
7359 7361 1 0.110 284512.0
7364 7365 1 0.135 402500.8
7365 7366 1 0.137 402500.8
7366 7367 1 0.147 319657.6
7366 7371 1 0.101 363171.2
7367 7368 1 0.143 267776.0
7367 7369 1 0.110 284512.0
7367 7370 1 0.110 284512.0
7373 7374 1 0.135 402500.8
7374 7375 1 0.137 402500.8
7375 7376 1 0.147 319657.6
7375 7381 1 0.101 363171.2
7376 7377 1 0.143 267776.0
7376 7379 1 0.110 284512.0
7376 7380 1 0.110 284512.0
7377 7378 1 0.098 462750.4
7383 7384 1 0.135 402500.8
7384 7385 1 0.137 402500.8
7385 7386 1 0.147 319657.6
7385 7390 1 0.101 363171.2
7386 7387 1 0.143 267776.0
7386 7388 1 0.110 284512.0
7386 7389 1 0.110 284512.0
7392 7393 1 0.135 402500.8
7393 7394 1 0.137 402500.8
7394 7395 1 0.147 319657.6
7394 7398 1 0.101 363171.2
7395 7396 1 0.110 284512.0
7395 7397 1 0.110 284512.0
7400 7401 1 0.135 402500.8
7401 7402 1 0.137 402500.8
7402 7403 1 0.147 319657.6
7402 7406 1 0.101 363171.2
7403 7404 1 0.110 284512.0
7403 7405 1 0.110 284512.0
7408 7409 1 0.135 402500.8
7409 7410 1 0.137 402500.8
7410 7411 1 0.147 319657.6
7410 7414 1 0.101 363171.2
7411 7412 1 0.110 284512.0
7411 7413 1 0.110 284512.0
7416 7417 1 0.135 402500.8
7417 7418 1 0.137 402500.8
7418 7419 1 0.147 319657.6
7418 7422 1 0.101 363171.2
7419 7420 1 0.110 284512.0
7419 7421 1 0.110 284512.0
7424 7425 1 0.135 402500.8
7425 7426 1 0.137 402500.8
7426 7427 1 0.147 319657.6
7426 7430 1 0.101 363171.2
7427 7428 1 0.110 284512.0
7427 7429 1 0.110 284512.0
7432 7433 1 0.135 402500.8
7433 7434 1 0.137 402500.8
7434 7435 1 0.147 319657.6
7434 7438 1 0.101 363171.2
7435 7436 1 0.110 284512.0
7435 7437 1 0.110 284512.0
7440 7441 1 0.135 402500.8
7441 7442 1 0.137 402500.8
7442 7443 1 0.147 319657.6
7442 7446 1 0.101 363171.2
7443 7444 1 0.110 284512.0
7443 7445 1 0.110 284512.0
7448 7449 1 0.135 402500.8
7449 7450 1 0.137 402500.8
7450 7451 1 0.147 319657.6
7450 7455 1 0.101 363171.2
7451 7452 1 0.143 267776.0
7451 7453 1 0.110 284512.0
7451 7454 1 0.110 284512.0
7457 7458 1 0.135 402500.8
7458 7459 1 0.137 402500.8
7459 7460 1 0.147 319657.6
7459 7464 1 0.101 363171.2
7460 7461 1 0.143 267776.0
7460 7462 1 0.110 284512.0
7460 7463 1 0.110 284512.0
7466 7467 1 0.135 402500.8
7467 7468 1 0.137 402500.8
7468 7469 1 0.147 319657.6
7468 7472 1 0.101 363171.2
7469 7470 1 0.110 284512.0
7469 7471 1 0.110 284512.0
7474 7475 1 0.135 402500.8
7475 7476 1 0.137 402500.8
7476 7477 1 0.147 319657.6
7476 7480 1 0.101 363171.2
7477 7478 1 0.110 284512.0
7477 7479 1 0.110 284512.0
7482 7483 1 0.135 402500.8
7483 7484 1 0.137 402500.8
7484 7485 1 0.147 319657.6
7484 7490 1 0.101 363171.2
7485 7486 1 0.143 267776.0
7485 7488 1 0.110 284512.0
7485 7489 1 0.110 284512.0
7486 7487 1 0.097 462750.4
7492 7493 1 0.135 402500.8
7493 7494 1 0.137 402500.8
7494 7495 1 0.147 319657.6
7494 7499 1 0.101 363171.2
7495 7496 1 0.143 267776.0
7495 7497 1 0.110 284512.0
7495 7498 1 0.110 284512.0
7501 7502 1 0.135 402500.8
7502 7503 1 0.137 402500.8
7503 7504 1 0.147 319657.6
7503 7507 1 0.101 363171.2
7504 7505 1 0.110 284512.0
7504 7506 1 0.110 284512.0
7509 7510 1 0.135 402500.8
7510 7511 1 0.137 402500.8
7511 7512 1 0.147 319657.6
7511 7516 1 0.101 363171.2
7512 7513 1 0.143 267776.0
7512 7514 1 0.110 284512.0
7512 7515 1 0.110 284512.0
7518 7519 1 0.135 402500.8
7519 7520 1 0.137 402500.8
7520 7521 1 0.147 319657.6
7520 7525 1 0.101 363171.2
7521 7522 1 0.143 267776.0
7521 7523 1 0.110 284512.0
7521 7524 1 0.110 284512.0
7527 7528 1 0.135 402500.8
7528 7529 1 0.137 402500.8
7529 7530 1 0.147 319657.6
7529 7533 1 0.101 363171.2
7530 7531 1 0.110 284512.0
7530 7532 1 0.110 284512.0
7535 7536 1 0.135 402500.8
7536 7537 1 0.137 402500.8
7537 7538 1 0.147 319657.6
7537 7542 1 0.101 363171.2
7538 7539 1 0.143 267776.0
7538 7540 1 0.110 284512.0
7538 7541 1 0.110 284512.0
7544 7545 1 0.135 402500.8
7545 7546 1 0.137 402500.8
7546 7547 1 0.147 319657.6
7546 7550 1 0.101 363171.2
7547 7548 1 0.110 284512.0
7547 7549 1 0.110 284512.0
7552 7553 1 0.135 402500.8
7553 7554 1 0.137 402500.8
7554 7555 1 0.147 319657.6
7554 7559 1 0.101 363171.2
7555 7556 1 0.143 267776.0
7555 7557 1 0.110 284512.0
7555 7558 1 0.110 284512.0
7561 7562 1 0.135 402500.8
7562 7563 1 0.137 402500.8
7563 7564 1 0.147 319657.6
7563 7568 1 0.101 363171.2
7564 7565 1 0.143 267776.0
7564 7566 1 0.110 284512.0
7564 7567 1 0.110 284512.0
7570 7571 1 0.135 402500.8
7571 7572 1 0.137 402500.8
7572 7573 1 0.147 319657.6
7572 7577 1 0.101 363171.2
7573 7574 1 0.143 267776.0
7573 7575 1 0.110 284512.0
7573 7576 1 0.110 284512.0
7579 7580 1 0.135 402500.8
7580 7581 1 0.137 402500.8
7581 7582 1 0.147 319657.6
7581 7586 1 0.101 363171.2
7582 7583 1 0.143 267776.0
7582 7584 1 0.110 284512.0
7582 7585 1 0.110 284512.0
7588 7589 1 0.135 402500.8
7589 7590 1 0.137 402500.8
7590 7591 1 0.147 319657.6
7590 7596 1 0.101 363171.2
7591 7592 1 0.143 267776.0
7591 7594 1 0.110 284512.0
7591 7595 1 0.110 284512.0
7592 7593 1 0.097 462750.4
7598 7599 1 0.135 402500.8
7599 7600 1 0.137 402500.8
7600 7601 1 0.147 319657.6
7600 7604 1 0.101 363171.2
7601 7602 1 0.110 284512.0
7601 7603 1 0.110 284512.0
7606 7607 1 0.135 402500.8
7607 7608 1 0.137 402500.8
7608 7609 1 0.147 319657.6
7608 7612 1 0.101 363171.2
7609 7610 1 0.110 284512.0
7609 7611 1 0.110 284512.0
7614 7615 1 0.135 402500.8
7615 7616 1 0.137 402500.8
7616 7617 1 0.147 319657.6
7616 7620 1 0.101 363171.2
7617 7618 1 0.110 284512.0
7617 7619 1 0.110 284512.0
7622 7623 1 0.135 402500.8
7623 7624 1 0.137 402500.8
7624 7625 1 0.147 319657.6
7624 7630 1 0.101 363171.2
7625 7626 1 0.143 267776.0
7625 7628 1 0.110 284512.0
7625 7629 1 0.110 284512.0
7626 7627 1 0.098 462750.4
7632 7633 1 0.135 402500.8
7633 7634 1 0.137 402500.8
7634 7635 1 0.147 319657.6
7634 7639 1 0.101 363171.2
7635 7636 1 0.143 267776.0
7635 7637 1 0.110 284512.0
7635 7638 1 0.110 284512.0
7641 7642 1 0.135 402500.8
7642 7643 1 0.137 402500.8
7643 7644 1 0.147 319657.6
7643 7648 1 0.101 363171.2
7644 7645 1 0.143 267776.0
7644 7646 1 0.110 284512.0
7644 7647 1 0.110 284512.0
7650 7651 1 0.135 402500.8
7651 7652 1 0.137 402500.8
7652 7653 1 0.147 319657.6
7652 7656 1 0.101 363171.2
7653 7654 1 0.110 284512.0
7653 7655 1 0.110 284512.0
7658 7659 1 0.135 402500.8
7659 7660 1 0.137 402500.8
7660 7661 1 0.147 319657.6
7660 7664 1 0.101 363171.2
7661 7662 1 0.110 284512.0
7661 7663 1 0.110 284512.0
7666 7667 1 0.135 402500.8
7667 7668 1 0.137 402500.8
7668 7669 1 0.147 319657.6
7668 7673 1 0.101 363171.2
7669 7670 1 0.143 267776.0
7669 7671 1 0.110 284512.0
7669 7672 1 0.110 284512.0
7675 7676 1 0.135 402500.8
7676 7677 1 0.137 402500.8
7677 7678 1 0.147 319657.6
7677 7681 1 0.101 363171.2
7678 7679 1 0.110 284512.0
7678 7680 1 0.110 284512.0
7683 7684 1 0.135 402500.8
7684 7685 1 0.137 402500.8
7685 7686 1 0.147 319657.6
7685 7689 1 0.101 363171.2
7686 7687 1 0.110 284512.0
7686 7688 1 0.110 284512.0
7691 7692 1 0.135 402500.8
7692 7693 1 0.137 402500.8
7693 7694 1 0.147 319657.6
7693 7698 1 0.101 363171.2
7694 7695 1 0.143 267776.0
7694 7696 1 0.110 284512.0
7694 7697 1 0.110 284512.0
7700 7701 1 0.135 402500.8
7701 7702 1 0.137 402500.8
7702 7703 1 0.147 319657.6
7702 7707 1 0.101 363171.2
7703 7704 1 0.143 267776.0
7703 7705 1 0.110 284512.0
7703 7706 1 0.110 284512.0
7709 7710 1 0.135 402500.8
7710 7711 1 0.137 402500.8
7711 7712 1 0.147 319657.6
7711 7716 1 0.101 363171.2
7712 7713 1 0.143 267776.0
7712 7714 1 0.110 284512.0
7712 7715 1 0.110 284512.0
7718 7719 1 0.135 402500.8
7719 7720 1 0.137 402500.8
7720 7721 1 0.147 319657.6
7720 7724 1 0.101 363171.2
7721 7722 1 0.110 284512.0
7721 7723 1 0.110 284512.0
7726 7727 1 0.135 402500.8
7727 7728 1 0.137 402500.8
7728 7729 1 0.147 319657.6
7728 7733 1 0.101 363171.2
7729 7730 1 0.143 267776.0
7729 7731 1 0.110 284512.0
7729 7732 1 0.110 284512.0
7735 7736 1 0.135 402500.8
7736 7737 1 0.137 402500.8
7737 7738 1 0.147 319657.6
7737 7742 1 0.101 363171.2
7738 7739 1 0.143 267776.0
7738 7740 1 0.110 284512.0
7738 7741 1 0.110 284512.0
7744 7745 1 0.135 402500.8
7745 7746 1 0.137 402500.8
7746 7747 1 0.147 319657.6
7746 7750 1 0.101 363171.2
7747 7748 1 0.110 284512.0
7747 7749 1 0.110 284512.0
7752 7753 1 0.135 402500.8
7753 7754 1 0.137 402500.8
7754 7755 1 0.147 319657.6
7754 7758 1 0.101 363171.2
7755 7756 1 0.110 284512.0
7755 7757 1 0.110 284512.0
7760 7761 1 0.135 402500.8
7761 7762 1 0.137 402500.8
7762 7763 1 0.147 319657.6
7762 7767 1 0.101 363171.2
7763 7764 1 0.143 267776.0
7763 7765 1 0.110 284512.0
7763 7766 1 0.110 284512.0
7769 7770 1 0.135 402500.8
7770 7771 1 0.137 402500.8
7771 7772 1 0.147 319657.6
7771 7775 1 0.101 363171.2
7772 7773 1 0.110 284512.0
7772 7774 1 0.110 284512.0
7777 7778 1 0.135 402500.8
7778 7779 1 0.137 402500.8
7779 7780 1 0.147 319657.6
7779 7785 1 0.101 363171.2
7780 7781 1 0.143 267776.0
7780 7783 1 0.110 284512.0
7780 7784 1 0.110 284512.0
7781 7782 1 0.098 462750.4
7787 7788 1 0.135 402500.8
7788 7789 1 0.137 402500.8
7789 7790 1 0.147 319657.6
7789 7794 1 0.101 363171.2
7790 7791 1 0.143 267776.0
7790 7792 1 0.110 284512.0
7790 7793 1 0.110 284512.0
7796 7797 1 0.135 402500.8
7797 7798 1 0.137 402500.8
7798 7799 1 0.147 319657.6
7798 7802 1 0.101 363171.2
7799 7800 1 0.110 284512.0
7799 7801 1 0.110 284512.0
7804 7805 1 0.135 402500.8
7805 7806 1 0.137 402500.8
7806 7807 1 0.147 319657.6
7806 7810 1 0.101 363171.2
7807 7808 1 0.110 284512.0
7807 7809 1 0.110 284512.0
7812 7813 1 0.135 402500.8
7813 7814 1 0.137 402500.8
7814 7815 1 0.147 319657.6
7814 7819 1 0.101 363171.2
7815 7816 1 0.143 267776.0
7815 7817 1 0.110 284512.0
7815 7818 1 0.110 284512.0
7821 7822 1 0.135 402500.8
7822 7823 1 0.137 402500.8
7823 7824 1 0.147 319657.6
7823 7827 1 0.101 363171.2
7824 7825 1 0.110 284512.0
7824 7826 1 0.110 284512.0
7829 7830 1 0.135 402500.8
7830 7831 1 0.137 402500.8
7831 7832 1 0.147 319657.6
7831 7835 1 0.101 363171.2
7832 7833 1 0.110 284512.0
7832 7834 1 0.110 284512.0
7837 7838 1 0.135 402500.8
7838 7839 1 0.137 402500.8
7839 7840 1 0.147 319657.6
7839 7843 1 0.101 363171.2
7840 7841 1 0.110 284512.0
7840 7842 1 0.110 284512.0
7845 7846 1 0.135 402500.8
7846 7847 1 0.137 402500.8
7847 7848 1 0.147 319657.6
7847 7852 1 0.101 363171.2
7848 7849 1 0.143 267776.0
7848 7850 1 0.110 284512.0
7848 7851 1 0.110 284512.0
7854 7855 1 0.135 402500.8
7855 7856 1 0.137 402500.8
7856 7857 1 0.147 319657.6
7856 7861 1 0.101 363171.2
7857 7858 1 0.143 267776.0
7857 7859 1 0.110 284512.0
7857 7860 1 0.110 284512.0
7863 7864 1 0.135 402500.8
7864 7865 1 0.137 402500.8
7865 7866 1 0.147 319657.6
7865 7869 1 0.101 363171.2
7866 7867 1 0.110 284512.0
7866 7868 1 0.110 284512.0
7871 7872 1 0.135 402500.8
7872 7873 1 0.137 402500.8
7873 7874 1 0.147 319657.6
7873 7877 1 0.101 363171.2
7874 7875 1 0.110 284512.0
7874 7876 1 0.110 284512.0
7879 7880 1 0.135 402500.8
7880 7881 1 0.137 402500.8
7881 7882 1 0.147 319657.6
7881 7885 1 0.101 363171.2
7882 7883 1 0.110 284512.0
7882 7884 1 0.110 284512.0
7887 7888 1 0.135 402500.8
7888 7889 1 0.137 402500.8
7889 7890 1 0.147 319657.6
7889 7893 1 0.101 363171.2
7890 7891 1 0.110 284512.0
7890 7892 1 0.110 284512.0
7895 7896 1 0.135 402500.8
7896 7897 1 0.137 402500.8
7897 7898 1 0.147 319657.6
7897 7902 1 0.101 363171.2
7898 7899 1 0.143 267776.0
7898 7900 1 0.110 284512.0
7898 7901 1 0.110 284512.0
7904 7905 1 0.135 402500.8
7905 7906 1 0.137 402500.8
7906 7907 1 0.147 319657.6
7906 7910 1 0.101 363171.2
7907 7908 1 0.110 284512.0
7907 7909 1 0.110 284512.0
7912 7913 1 0.135 402500.8
7913 7914 1 0.137 402500.8
7914 7915 1 0.147 319657.6
7914 7919 1 0.101 363171.2
7915 7916 1 0.143 267776.0
7915 7917 1 0.110 284512.0
7915 7918 1 0.110 284512.0
7921 7922 1 0.135 402500.8
7922 7923 1 0.137 402500.8
7923 7924 1 0.147 319657.6
7923 7928 1 0.101 363171.2
7924 7925 1 0.143 267776.0
7924 7926 1 0.110 284512.0
7924 7927 1 0.110 284512.0
7930 7931 1 0.135 402500.8
7931 7932 1 0.137 402500.8
7932 7933 1 0.147 319657.6
7932 7936 1 0.101 363171.2
7933 7934 1 0.110 284512.0
7933 7935 1 0.110 284512.0
7938 7939 1 0.135 402500.8
7939 7940 1 0.137 402500.8
7940 7941 1 0.147 319657.6
7940 7946 1 0.101 363171.2
7941 7942 1 0.143 267776.0
7941 7944 1 0.110 284512.0
7941 7945 1 0.110 284512.0
7942 7943 1 0.098 462750.4
7948 7949 1 0.135 402500.8
7949 7950 1 0.137 402500.8
7950 7951 1 0.147 319657.6
7950 7954 1 0.101 363171.2
7951 7952 1 0.110 284512.0
7951 7953 1 0.110 284512.0
7956 7957 1 0.135 402500.8
7957 7958 1 0.137 402500.8
7958 7959 1 0.147 319657.6
7958 7963 1 0.101 363171.2
7959 7960 1 0.143 267776.0
7959 7961 1 0.110 284512.0
7959 7962 1 0.110 284512.0
7965 7966 1 0.135 402500.8
7966 7967 1 0.137 402500.8
7967 7968 1 0.147 319657.6
7967 7973 1 0.101 363171.2
7968 7969 1 0.143 267776.0
7968 7971 1 0.110 284512.0
7968 7972 1 0.110 284512.0
7969 7970 1 0.098 462750.4
7975 7976 1 0.135 402500.8
7976 7977 1 0.137 402500.8
7977 7978 1 0.147 319657.6
7977 7982 1 0.101 363171.2
7978 7979 1 0.143 267776.0
7978 7980 1 0.110 284512.0
7978 7981 1 0.110 284512.0
7984 7985 1 0.135 402500.8
7985 7986 1 0.137 402500.8
7986 7987 1 0.147 319657.6
7986 7992 1 0.101 363171.2
7987 7988 1 0.143 267776.0
7987 7990 1 0.110 284512.0
7987 7991 1 0.110 284512.0
7988 7989 1 0.098 462750.4
7994 7995 1 0.135 402500.8
7995 7996 1 0.137 402500.8
7996 7997 1 0.147 319657.6
7996 8001 1 0.101 363171.2
7997 7998 1 0.143 267776.0
7997 7999 1 0.110 284512.0
7997 8000 1 0.110 284512.0
8003 8004 1 0.135 402500.8
8004 8005 1 0.137 402500.8
8005 8006 1 0.147 319657.6
8005 8009 1 0.101 363171.2
8006 8007 1 0.110 284512.0
8006 8008 1 0.110 284512.0
8011 8012 1 0.135 402500.8
8012 8013 1 0.137 402500.8
8013 8014 1 0.147 319657.6
8013 8018 1 0.101 363171.2
8014 8015 1 0.143 267776.0
8014 8016 1 0.110 284512.0
8014 8017 1 0.110 284512.0
8020 8021 1 0.135 402500.8
8021 8022 1 0.137 402500.8
8022 8023 1 0.147 319657.6
8022 8027 1 0.101 363171.2
8023 8024 1 0.143 267776.0
8023 8025 1 0.110 284512.0
8023 8026 1 0.110 284512.0
8029 8030 1 0.135 402500.8
8030 8031 1 0.137 402500.8
8031 8032 1 0.147 319657.6
8031 8036 1 0.101 363171.2
8032 8033 1 0.143 267776.0
8032 8034 1 0.110 284512.0
8032 8035 1 0.110 284512.0
8038 8039 1 0.135 402500.8
8039 8040 1 0.137 402500.8
8040 8041 1 0.147 319657.6
8040 8045 1 0.101 363171.2
8041 8042 1 0.143 267776.0
8041 8043 1 0.110 284512.0
8041 8044 1 0.110 284512.0
8047 8048 1 0.135 402500.8
8048 8049 1 0.137 402500.8
8049 8050 1 0.147 319657.6
8049 8053 1 0.101 363171.2
8050 8051 1 0.110 284512.0
8050 8052 1 0.110 284512.0
8055 8056 1 0.135 402500.8
8056 8057 1 0.137 402500.8
8057 8058 1 0.147 319657.6
8057 8061 1 0.101 363171.2
8058 8059 1 0.110 284512.0
8058 8060 1 0.110 284512.0
8063 8064 1 0.135 402500.8
8064 8065 1 0.137 402500.8
8065 8066 1 0.147 319657.6
8065 8069 1 0.101 363171.2
8066 8067 1 0.110 284512.0
8066 8068 1 0.110 284512.0
8071 8072 1 0.135 402500.8
8072 8073 1 0.137 402500.8
8073 8074 1 0.147 319657.6
8073 8078 1 0.101 363171.2
8074 8075 1 0.143 267776.0
8074 8076 1 0.110 284512.0
8074 8077 1 0.110 284512.0
8080 8081 1 0.135 402500.8
8081 8082 1 0.137 402500.8
8082 8083 1 0.147 319657.6
8082 8086 1 0.101 363171.2
8083 8084 1 0.110 284512.0
8083 8085 1 0.110 284512.0
8088 8089 1 0.135 402500.8
8089 8090 1 0.137 402500.8
8090 8091 1 0.147 319657.6
8090 8094 1 0.101 363171.2
8091 8092 1 0.110 284512.0
8091 8093 1 0.110 284512.0
8096 8097 1 0.135 402500.8
8097 8098 1 0.137 402500.8
8098 8099 1 0.147 319657.6
8098 8103 1 0.101 363171.2
8099 8100 1 0.143 267776.0
8099 8101 1 0.110 284512.0
8099 8102 1 0.110 284512.0
8105 8106 1 0.135 402500.8
8106 8107 1 0.137 402500.8
8107 8108 1 0.147 319657.6
8107 8112 1 0.101 363171.2
8108 8109 1 0.143 267776.0
8108 8110 1 0.110 284512.0
8108 8111 1 0.110 284512.0
8114 8115 1 0.135 402500.8
8115 8116 1 0.137 402500.8
8116 8117 1 0.147 319657.6
8116 8121 1 0.101 363171.2
8117 8118 1 0.143 267776.0
8117 8119 1 0.110 284512.0
8117 8120 1 0.110 284512.0
8123 8124 1 0.135 402500.8
8124 8125 1 0.137 402500.8
8125 8126 1 0.147 319657.6
8125 8131 1 0.101 363171.2
8126 8127 1 0.143 267776.0
8126 8129 1 0.110 284512.0
8126 8130 1 0.110 284512.0
8127 8128 1 0.098 462750.4
8133 8134 1 0.135 402500.8
8134 8135 1 0.137 402500.8
8135 8136 1 0.147 319657.6
8135 8139 1 0.101 363171.2
8136 8137 1 0.110 284512.0
8136 8138 1 0.110 284512.0
8141 8142 1 0.135 402500.8
8142 8143 1 0.137 402500.8
8143 8144 1 0.147 319657.6
8143 8147 1 0.101 363171.2
8144 8145 1 0.110 284512.0
8144 8146 1 0.110 284512.0
8149 8150 1 0.135 402500.8
8150 8151 1 0.137 402500.8
8151 8152 1 0.147 319657.6
8151 8156 1 0.101 363171.2
8152 8153 1 0.143 267776.0
8152 8154 1 0.110 284512.0
8152 8155 1 0.110 284512.0
8158 8159 1 0.135 402500.8
8159 8160 1 0.137 402500.8
8160 8161 1 0.147 319657.6
8160 8164 1 0.101 363171.2
8161 8162 1 0.110 284512.0
8161 8163 1 0.110 284512.0
8166 8167 1 0.135 402500.8
8167 8168 1 0.137 402500.8
8168 8169 1 0.147 319657.6
8168 8172 1 0.101 363171.2
8169 8170 1 0.110 284512.0
8169 8171 1 0.110 284512.0
8174 8175 1 0.135 402500.8
8175 8176 1 0.137 402500.8
8176 8177 1 0.147 319657.6
8176 8180 1 0.101 363171.2
8177 8178 1 0.110 284512.0
8177 8179 1 0.110 284512.0
8182 8183 1 0.135 402500.8
8183 8184 1 0.137 402500.8
8184 8185 1 0.147 319657.6
8184 8188 1 0.101 363171.2
8185 8186 1 0.110 284512.0
8185 8187 1 0.110 284512.0
8190 8191 1 0.135 402500.8
8191 8192 1 0.137 402500.8
8192 8193 1 0.147 319657.6
8192 8196 1 0.101 363171.2
8193 8194 1 0.110 284512.0
8193 8195 1 0.110 284512.0
8198 8199 1 0.135 402500.8
8199 8200 1 0.137 402500.8
8200 8201 1 0.147 319657.6
8200 8205 1 0.101 363171.2
8201 8202 1 0.143 267776.0
8201 8203 1 0.110 284512.0
8201 8204 1 0.110 284512.0
8207 8208 1 0.135 402500.8
8208 8209 1 0.137 402500.8
8209 8210 1 0.147 319657.6
8209 8213 1 0.101 363171.2
8210 8211 1 0.110 284512.0
8210 8212 1 0.110 284512.0
8215 8216 1 0.135 402500.8
8216 8217 1 0.137 402500.8
8217 8218 1 0.147 319657.6
8217 8222 1 0.101 363171.2
8218 8219 1 0.143 267776.0
8218 8220 1 0.110 284512.0
8218 8221 1 0.110 284512.0
8224 8225 1 0.135 402500.8
8225 8226 1 0.137 402500.8
8226 8227 1 0.147 319657.6
8226 8231 1 0.101 363171.2
8227 8228 1 0.143 267776.0
8227 8229 1 0.110 284512.0
8227 8230 1 0.110 284512.0
8233 8234 1 0.135 402500.8
8234 8235 1 0.137 402500.8
8235 8236 1 0.147 319657.6
8235 8240 1 0.101 363171.2
8236 8237 1 0.143 267776.0
8236 8238 1 0.110 284512.0
8236 8239 1 0.110 284512.0
8242 8243 1 0.135 402500.8
8243 8244 1 0.137 402500.8
8244 8245 1 0.147 319657.6
8244 8249 1 0.101 363171.2
8245 8246 1 0.143 267776.0
8245 8247 1 0.110 284512.0
8245 8248 1 0.110 284512.0
8251 8252 1 0.135 402500.8
8252 8253 1 0.137 402500.8
8253 8254 1 0.147 319657.6
8253 8257 1 0.101 363171.2
8254 8255 1 0.110 284512.0
8254 8256 1 0.110 284512.0
8259 8260 1 0.135 402500.8
8260 8261 1 0.137 402500.8
8261 8262 1 0.147 319657.6
8261 8265 1 0.101 363171.2
8262 8263 1 0.110 284512.0
8262 8264 1 0.110 284512.0
8267 8268 1 0.135 402500.8
8268 8269 1 0.137 402500.8
8269 8270 1 0.147 319657.6
8269 8274 1 0.101 363171.2
8270 8271 1 0.143 267776.0
8270 8272 1 0.110 284512.0
8270 8273 1 0.110 284512.0
8276 8277 1 0.135 402500.8
8277 8278 1 0.137 402500.8
8278 8279 1 0.147 319657.6
8278 8283 1 0.101 363171.2
8279 8280 1 0.143 267776.0
8279 8281 1 0.110 284512.0
8279 8282 1 0.110 284512.0
8285 8286 1 0.135 402500.8
8286 8287 1 0.137 402500.8
8287 8288 1 0.147 319657.6
8287 8291 1 0.101 363171.2
8288 8289 1 0.110 284512.0
8288 8290 1 0.110 284512.0
8293 8294 1 0.135 402500.8
8294 8295 1 0.137 402500.8
8295 8296 1 0.147 319657.6
8295 8299 1 0.101 363171.2
8296 8297 1 0.110 284512.0
8296 8298 1 0.110 284512.0
8301 8302 1 0.135 402500.8
8302 8303 1 0.137 402500.8
8303 8304 1 0.147 319657.6
8303 8309 1 0.101 363171.2
8304 8305 1 0.143 267776.0
8304 8307 1 0.110 284512.0
8304 8308 1 0.110 284512.0
8305 8306 1 0.098 462750.4
8311 8312 1 0.135 402500.8
8312 8313 1 0.137 402500.8
8313 8314 1 0.147 319657.6
8313 8317 1 0.101 363171.2
8314 8315 1 0.110 284512.0
8314 8316 1 0.110 284512.0
8319 8320 1 0.135 402500.8
8320 8321 1 0.137 402500.8
8321 8322 1 0.147 319657.6
8321 8325 1 0.101 363171.2
8322 8323 1 0.110 284512.0
8322 8324 1 0.110 284512.0
8327 8328 1 0.135 402500.8
8328 8329 1 0.137 402500.8
8329 8330 1 0.147 319657.6
8329 8333 1 0.101 363171.2
8330 8331 1 0.110 284512.0
8330 8332 1 0.110 284512.0
8335 8336 1 0.135 402500.8
8336 8337 1 0.137 402500.8
8337 8338 1 0.147 319657.6
8337 8341 1 0.101 363171.2
8338 8339 1 0.110 284512.0
8338 8340 1 0.110 284512.0
8343 8344 1 0.135 402500.8
8344 8345 1 0.137 402500.8
8345 8346 1 0.147 319657.6
8345 8349 1 0.101 363171.2
8346 8347 1 0.110 284512.0
8346 8348 1 0.110 284512.0
8351 8352 1 0.135 402500.8
8352 8353 1 0.137 402500.8
8353 8354 1 0.147 319657.6
8353 8357 1 0.101 363171.2
8354 8355 1 0.110 284512.0
8354 8356 1 0.110 284512.0
8359 8360 1 0.135 402500.8
8360 8361 1 0.137 402500.8
8361 8362 1 0.147 319657.6
8361 8365 1 0.101 363171.2
8362 8363 1 0.110 284512.0
8362 8364 1 0.110 284512.0
8367 8368 1 0.135 402500.8
8368 8369 1 0.137 402500.8
8369 8370 1 0.147 319657.6
8369 8374 1 0.101 363171.2
8370 8371 1 0.143 267776.0
8370 8372 1 0.110 284512.0
8370 8373 1 0.110 284512.0
8376 8377 1 0.135 402500.8
8377 8378 1 0.137 402500.8
8378 8379 1 0.147 319657.6
8378 8383 1 0.101 363171.2
8379 8380 1 0.143 267776.0
8379 8381 1 0.110 284512.0
8379 8382 1 0.110 284512.0
8385 8386 1 0.135 402500.8
8386 8387 1 0.137 402500.8
8387 8388 1 0.147 319657.6
8387 8391 1 0.101 363171.2
8388 8389 1 0.110 284512.0
8388 8390 1 0.110 284512.0
8393 8394 1 0.135 402500.8
8394 8395 1 0.137 402500.8
8395 8396 1 0.147 319657.6
8395 8399 1 0.101 363171.2
8396 8397 1 0.110 284512.0
8396 8398 1 0.110 284512.0
8401 8402 1 0.135 402500.8
8402 8403 1 0.137 402500.8
8403 8404 1 0.147 319657.6
8403 8408 1 0.101 363171.2
8404 8405 1 0.143 267776.0
8404 8406 1 0.110 284512.0
8404 8407 1 0.110 284512.0
8410 8411 1 0.135 402500.8
8411 8412 1 0.137 402500.8
8412 8413 1 0.147 319657.6
8412 8417 1 0.101 363171.2
8413 8414 1 0.143 267776.0
8413 8415 1 0.110 284512.0
8413 8416 1 0.110 284512.0
8419 8420 1 0.135 402500.8
8420 8421 1 0.137 402500.8
8421 8422 1 0.147 319657.6
8421 8426 1 0.101 363171.2
8422 8423 1 0.143 267776.0
8422 8424 1 0.110 284512.0
8422 8425 1 0.110 284512.0
8428 8429 1 0.135 402500.8
8429 8430 1 0.137 402500.8
8430 8431 1 0.147 319657.6
8430 8434 1 0.101 363171.2
8431 8432 1 0.110 284512.0
8431 8433 1 0.110 284512.0
8436 8437 1 0.135 402500.8
8437 8438 1 0.137 402500.8
8438 8439 1 0.147 319657.6
8438 8442 1 0.101 363171.2
8439 8440 1 0.110 284512.0
8439 8441 1 0.110 284512.0
8444 8445 1 0.135 402500.8
8445 8446 1 0.137 402500.8
8446 8447 1 0.147 319657.6
8446 8452 1 0.101 363171.2
8447 8448 1 0.143 267776.0
8447 8450 1 0.110 284512.0
8447 8451 1 0.110 284512.0
8448 8449 1 0.098 462750.4
8454 8455 1 0.135 402500.8
8455 8456 1 0.137 402500.8
8456 8457 1 0.147 319657.6
8456 8460 1 0.101 363171.2
8457 8458 1 0.110 284512.0
8457 8459 1 0.110 284512.0
8462 8463 1 0.135 402500.8
8463 8464 1 0.137 402500.8
8464 8465 1 0.147 319657.6
8464 8468 1 0.101 363171.2
8465 8466 1 0.110 284512.0
8465 8467 1 0.110 284512.0
8470 8471 1 0.135 402500.8
8471 8472 1 0.137 402500.8
8472 8473 1 0.147 319657.6
8472 8476 1 0.101 363171.2
8473 8474 1 0.110 284512.0
8473 8475 1 0.110 284512.0
8478 8479 1 0.135 402500.8
8479 8480 1 0.137 402500.8
8480 8481 1 0.147 319657.6
8480 8485 1 0.101 363171.2
8481 8482 1 0.143 267776.0
8481 8483 1 0.110 284512.0
8481 8484 1 0.110 284512.0
8487 8488 1 0.135 402500.8
8488 8489 1 0.137 402500.8
8489 8490 1 0.147 319657.6
8489 8494 1 0.101 363171.2
8490 8491 1 0.143 267776.0
8490 8492 1 0.110 284512.0
8490 8493 1 0.110 284512.0
8496 8497 1 0.135 402500.8
8497 8498 1 0.137 402500.8
8498 8499 1 0.147 319657.6
8498 8502 1 0.101 363171.2
8499 8500 1 0.110 284512.0
8499 8501 1 0.110 284512.0
8504 8505 1 0.135 402500.8
8505 8506 1 0.137 402500.8
8506 8507 1 0.147 319657.6
8506 8510 1 0.101 363171.2
8507 8508 1 0.110 284512.0
8507 8509 1 0.110 284512.0
8512 8513 1 0.135 402500.8
8513 8514 1 0.137 402500.8
8514 8515 1 0.147 319657.6
8514 8518 1 0.101 363171.2
8515 8516 1 0.110 284512.0
8515 8517 1 0.110 284512.0
8520 8521 1 0.135 402500.8
8521 8522 1 0.137 402500.8
8522 8523 1 0.147 319657.6
8522 8526 1 0.101 363171.2
8523 8524 1 0.110 284512.0
8523 8525 1 0.110 284512.0
8528 8529 1 0.135 402500.8
8529 8530 1 0.137 402500.8
8530 8531 1 0.147 319657.6
8530 8535 1 0.101 363171.2
8531 8532 1 0.143 267776.0
8531 8533 1 0.110 284512.0
8531 8534 1 0.110 284512.0
8537 8538 1 0.135 402500.8
8538 8539 1 0.137 402500.8
8539 8540 1 0.147 319657.6
8539 8544 1 0.101 363171.2
8540 8541 1 0.143 267776.0
8540 8542 1 0.110 284512.0
8540 8543 1 0.110 284512.0
8546 8547 1 0.135 402500.8
8547 8548 1 0.137 402500.8
8548 8549 1 0.147 319657.6
8548 8552 1 0.101 363171.2
8549 8550 1 0.110 284512.0
8549 8551 1 0.110 284512.0
8554 8555 1 0.135 402500.8
8555 8556 1 0.137 402500.8
8556 8557 1 0.147 319657.6
8556 8561 1 0.101 363171.2
8557 8558 1 0.143 267776.0
8557 8559 1 0.110 284512.0
8557 8560 1 0.110 284512.0
8563 8564 1 0.135 402500.8
8564 8565 1 0.137 402500.8
8565 8566 1 0.147 319657.6
8565 8569 1 0.101 363171.2
8566 8567 1 0.110 284512.0
8566 8568 1 0.110 284512.0
8571 8572 1 0.135 402500.8
8572 8573 1 0.137 402500.8
8573 8574 1 0.147 319657.6
8573 8578 1 0.101 363171.2
8574 8575 1 0.143 267776.0
8574 8576 1 0.110 284512.0
8574 8577 1 0.110 284512.0
8580 8581 1 0.135 402500.8
8581 8582 1 0.137 402500.8
8582 8583 1 0.147 319657.6
8582 8586 1 0.101 363171.2
8583 8584 1 0.110 284512.0
8583 8585 1 0.110 284512.0
8588 8589 1 0.135 402500.8
8589 8590 1 0.137 402500.8
8590 8591 1 0.147 319657.6
8590 8594 1 0.101 363171.2
8591 8592 1 0.110 284512.0
8591 8593 1 0.110 284512.0
8596 8597 1 0.135 402500.8
8597 8598 1 0.137 402500.8
8598 8599 1 0.147 319657.6
8598 8602 1 0.101 363171.2
8599 8600 1 0.110 284512.0
8599 8601 1 0.110 284512.0
8604 8605 1 0.135 402500.8
8605 8606 1 0.137 402500.8
8606 8607 1 0.147 319657.6
8606 8611 1 0.101 363171.2
8607 8608 1 0.143 267776.0
8607 8609 1 0.110 284512.0
8607 8610 1 0.110 284512.0
8613 8614 1 0.135 402500.8
8614 8615 1 0.137 402500.8
8615 8616 1 0.147 319657.6
8615 8620 1 0.101 363171.2
8616 8617 1 0.143 267776.0
8616 8618 1 0.110 284512.0
8616 8619 1 0.110 284512.0
8622 8623 1 0.135 402500.8
8623 8624 1 0.137 402500.8
8624 8625 1 0.147 319657.6
8624 8629 1 0.101 363171.2
8625 8626 1 0.143 267776.0
8625 8627 1 0.110 284512.0
8625 8628 1 0.110 284512.0
8631 8632 1 0.135 402500.8
8632 8633 1 0.137 402500.8
8633 8634 1 0.147 319657.6
8633 8637 1 0.101 363171.2
8634 8635 1 0.110 284512.0
8634 8636 1 0.110 284512.0
8639 8640 1 0.135 402500.8
8640 8641 1 0.137 402500.8
8641 8642 1 0.147 319657.6
8641 8645 1 0.101 363171.2
8642 8643 1 0.110 284512.0
8642 8644 1 0.110 284512.0
8647 8648 1 0.135 402500.8
8648 8649 1 0.137 402500.8
8649 8650 1 0.147 319657.6
8649 8653 1 0.101 363171.2
8650 8651 1 0.110 284512.0
8650 8652 1 0.110 284512.0
8655 8656 1 0.135 402500.8
8656 8657 1 0.137 402500.8
8657 8658 1 0.147 319657.6
8657 8661 1 0.101 363171.2
8658 8659 1 0.110 284512.0
8658 8660 1 0.110 284512.0
8663 8664 1 0.135 402500.8
8664 8665 1 0.137 402500.8
8665 8666 1 0.147 319657.6
8665 8669 1 0.101 363171.2
8666 8667 1 0.110 284512.0
8666 8668 1 0.110 284512.0
8671 8672 1 0.135 402500.8
8672 8673 1 0.137 402500.8
8673 8674 1 0.147 319657.6
8673 8677 1 0.101 363171.2
8674 8675 1 0.110 284512.0
8674 8676 1 0.110 284512.0
8679 8680 1 0.135 402500.8
8680 8681 1 0.137 402500.8
8681 8682 1 0.147 319657.6
8681 8686 1 0.101 363171.2
8682 8683 1 0.143 267776.0
8682 8684 1 0.110 284512.0
8682 8685 1 0.110 284512.0
8688 8689 1 0.135 402500.8
8689 8690 1 0.137 402500.8
8690 8691 1 0.147 319657.6
8690 8694 1 0.101 363171.2
8691 8692 1 0.110 284512.0
8691 8693 1 0.110 284512.0
8696 8697 1 0.135 402500.8
8697 8698 1 0.137 402500.8
8698 8699 1 0.147 319657.6
8698 8702 1 0.101 363171.2
8699 8700 1 0.110 284512.0
8699 8701 1 0.110 284512.0
8704 8705 1 0.135 402500.8
8705 8706 1 0.137 402500.8
8706 8707 1 0.147 319657.6
8706 8712 1 0.101 363171.2
8707 8708 1 0.143 267776.0
8707 8710 1 0.110 284512.0
8707 8711 1 0.110 284512.0
8708 8709 1 0.098 462750.4
8714 8715 1 0.135 402500.8
8715 8716 1 0.137 402500.8
8716 8717 1 0.147 319657.6
8716 8720 1 0.101 363171.2
8717 8718 1 0.110 284512.0
8717 8719 1 0.110 284512.0
8722 8723 1 0.135 402500.8
8723 8724 1 0.137 402500.8
8724 8725 1 0.147 319657.6
8724 8728 1 0.101 363171.2
8725 8726 1 0.110 284512.0
8725 8727 1 0.110 284512.0
8730 8731 1 0.135 402500.8
8731 8732 1 0.137 402500.8
8732 8733 1 0.147 319657.6
8732 8736 1 0.101 363171.2
8733 8734 1 0.110 284512.0
8733 8735 1 0.110 284512.0
8738 8739 1 0.135 402500.8
8739 8740 1 0.137 402500.8
8740 8741 1 0.147 319657.6
8740 8745 1 0.101 363171.2
8741 8742 1 0.143 267776.0
8741 8743 1 0.110 284512.0
8741 8744 1 0.110 284512.0
8747 8748 1 0.135 402500.8
8748 8749 1 0.137 402500.8
8749 8750 1 0.147 319657.6
8749 8754 1 0.101 363171.2
8750 8751 1 0.143 267776.0
8750 8752 1 0.110 284512.0
8750 8753 1 0.110 284512.0
8756 8757 1 0.135 402500.8
8757 8758 1 0.137 402500.8
8758 8759 1 0.147 319657.6
8758 8763 1 0.101 363171.2
8759 8760 1 0.143 267776.0
8759 8761 1 0.110 284512.0
8759 8762 1 0.110 284512.0
8765 8766 1 0.135 402500.8
8766 8767 1 0.137 402500.8
8767 8768 1 0.147 319657.6
8767 8772 1 0.101 363171.2
8768 8769 1 0.143 267776.0
8768 8770 1 0.110 284512.0
8768 8771 1 0.110 284512.0
8774 8775 1 0.135 402500.8
8775 8776 1 0.137 402500.8
8776 8777 1 0.147 319657.6
8776 8780 1 0.101 363171.2
8777 8778 1 0.110 284512.0
8777 8779 1 0.110 284512.0
8782 8783 1 0.135 402500.8
8783 8784 1 0.137 402500.8
8784 8785 1 0.147 319657.6
8784 8789 1 0.101 363171.2
8785 8786 1 0.143 267776.0
8785 8787 1 0.110 284512.0
8785 8788 1 0.110 284512.0
8791 8792 1 0.135 402500.8
8792 8793 1 0.137 402500.8
8793 8794 1 0.147 319657.6
8793 8797 1 0.101 363171.2
8794 8795 1 0.110 284512.0
8794 8796 1 0.110 284512.0
8799 8800 1 0.135 402500.8
8800 8801 1 0.137 402500.8
8801 8802 1 0.147 319657.6
8801 8806 1 0.101 363171.2
8802 8803 1 0.143 267776.0
8802 8804 1 0.110 284512.0
8802 8805 1 0.110 284512.0
8808 8809 1 0.135 402500.8
8809 8810 1 0.137 402500.8
8810 8811 1 0.147 319657.6
8810 8814 1 0.101 363171.2
8811 8812 1 0.110 284512.0
8811 8813 1 0.110 284512.0
8816 8817 1 0.135 402500.8
8817 8818 1 0.137 402500.8
8818 8819 1 0.147 319657.6
8818 8823 1 0.101 363171.2
8819 8820 1 0.143 267776.0
8819 8821 1 0.110 284512.0
8819 8822 1 0.110 284512.0
8825 8826 1 0.135 402500.8
8826 8827 1 0.137 402500.8
8827 8828 1 0.147 319657.6
8827 8831 1 0.101 363171.2
8828 8829 1 0.110 284512.0
8828 8830 1 0.110 284512.0
8833 8834 1 0.135 402500.8
8834 8835 1 0.137 402500.8
8835 8836 1 0.147 319657.6
8835 8839 1 0.101 363171.2
8836 8837 1 0.110 284512.0
8836 8838 1 0.110 284512.0
8841 8842 1 0.135 402500.8
8842 8843 1 0.137 402500.8
8843 8844 1 0.147 319657.6
8843 8848 1 0.101 363171.2
8844 8845 1 0.143 267776.0
8844 8846 1 0.110 284512.0
8844 8847 1 0.110 284512.0
8850 8851 1 0.135 402500.8
8851 8852 1 0.137 402500.8
8852 8853 1 0.147 319657.6
8852 8856 1 0.101 363171.2
8853 8854 1 0.110 284512.0
8853 8855 1 0.110 284512.0
8858 8859 1 0.135 402500.8
8859 8860 1 0.137 402500.8
8860 8861 1 0.147 319657.6
8860 8865 1 0.101 363171.2
8861 8862 1 0.143 267776.0
8861 8863 1 0.110 284512.0
8861 8864 1 0.110 284512.0
8867 8868 1 0.135 402500.8
8868 8869 1 0.137 402500.8
8869 8870 1 0.147 319657.6
8869 8873 1 0.101 363171.2
8870 8871 1 0.110 284512.0
8870 8872 1 0.110 284512.0
8875 8876 1 0.135 402500.8
8876 8877 1 0.137 402500.8
8877 8878 1 0.147 319657.6
8877 8883 1 0.101 363171.2
8878 8879 1 0.143 267776.0
8878 8881 1 0.110 284512.0
8878 8882 1 0.110 284512.0
8879 8880 1 0.098 462750.4
8885 8886 1 0.135 402500.8
8886 8887 1 0.137 402500.8
8887 8888 1 0.147 319657.6
8887 8891 1 0.101 363171.2
8888 8889 1 0.110 284512.0
8888 8890 1 0.110 284512.0
8893 8894 1 0.135 402500.8
8894 8895 1 0.137 402500.8
8895 8896 1 0.147 319657.6
8895 8899 1 0.101 363171.2
8896 8897 1 0.110 284512.0
8896 8898 1 0.110 284512.0
8901 8902 1 0.135 402500.8
8902 8903 1 0.137 402500.8
8903 8904 1 0.147 319657.6
8903 8907 1 0.101 363171.2
8904 8905 1 0.110 284512.0
8904 8906 1 0.110 284512.0
8909 8910 1 0.135 402500.8
8910 8911 1 0.137 402500.8
8911 8912 1 0.147 319657.6
8911 8916 1 0.101 363171.2
8912 8913 1 0.143 267776.0
8912 8914 1 0.110 284512.0
8912 8915 1 0.110 284512.0
8918 8919 1 0.135 402500.8
8919 8920 1 0.137 402500.8
8920 8921 1 0.147 319657.6
8920 8924 1 0.101 363171.2
8921 8922 1 0.110 284512.0
8921 8923 1 0.110 284512.0
8926 8927 1 0.135 402500.8
8927 8928 1 0.137 402500.8
8928 8929 1 0.147 319657.6
8928 8934 1 0.101 363171.2
8929 8930 1 0.143 267776.0
8929 8932 1 0.110 284512.0
8929 8933 1 0.110 284512.0
8930 8931 1 0.098 462750.4
8936 8937 1 0.135 402500.8
8937 8938 1 0.137 402500.8
8938 8939 1 0.147 319657.6
8938 8943 1 0.101 363171.2
8939 8940 1 0.143 267776.0
8939 8941 1 0.110 284512.0
8939 8942 1 0.110 284512.0
8945 8946 1 0.135 402500.8
8946 8947 1 0.137 402500.8
8947 8948 1 0.147 319657.6
8947 8951 1 0.101 363171.2
8948 8949 1 0.110 284512.0
8948 8950 1 0.110 284512.0
8953 8954 1 0.135 402500.8
8954 8955 1 0.137 402500.8
8955 8956 1 0.147 319657.6
8955 8960 1 0.101 363171.2
8956 8957 1 0.143 267776.0
8956 8958 1 0.110 284512.0
8956 8959 1 0.110 284512.0
8962 8963 1 0.135 402500.8
8963 8964 1 0.137 402500.8
8964 8965 1 0.147 319657.6
8964 8969 1 0.101 363171.2
8965 8966 1 0.143 267776.0
8965 8967 1 0.110 284512.0
8965 8968 1 0.110 284512.0
8971 8972 1 0.135 402500.8
8972 8973 1 0.137 402500.8
8973 8974 1 0.147 319657.6
8973 8977 1 0.101 363171.2
8974 8975 1 0.110 284512.0
8974 8976 1 0.110 284512.0
8979 8980 1 0.135 402500.8
8980 8981 1 0.137 402500.8
8981 8982 1 0.147 319657.6
8981 8985 1 0.101 363171.2
8982 8983 1 0.110 284512.0
8982 8984 1 0.110 284512.0
8987 8988 1 0.135 402500.8
8988 8989 1 0.137 402500.8
8989 8990 1 0.147 319657.6
8989 8993 1 0.101 363171.2
8990 8991 1 0.110 284512.0
8990 8992 1 0.110 284512.0
8995 8996 1 0.135 402500.8
8996 8997 1 0.137 402500.8
8997 8998 1 0.147 319657.6
8997 9001 1 0.101 363171.2
8998 8999 1 0.110 284512.0
8998 9000 1 0.110 284512.0
9003 9004 1 0.135 402500.8
9004 9005 1 0.137 402500.8
9005 9006 1 0.147 319657.6
9005 9011 1 0.101 363171.2
9006 9007 1 0.143 267776.0
9006 9009 1 0.110 284512.0
9006 9010 1 0.110 284512.0
9007 9008 1 0.098 462750.4
9013 9014 1 0.135 402500.8
9014 9015 1 0.137 402500.8
9015 9016 1 0.147 319657.6
9015 9019 1 0.101 363171.2
9016 9017 1 0.110 284512.0
9016 9018 1 0.110 284512.0
9021 9022 1 0.135 402500.8
9022 9023 1 0.137 402500.8
9023 9024 1 0.147 319657.6
9023 9027 1 0.101 363171.2
9024 9025 1 0.110 284512.0
9024 9026 1 0.110 284512.0
9029 9030 1 0.135 402500.8
9030 9031 1 0.137 402500.8
9031 9032 1 0.147 319657.6
9031 9035 1 0.101 363171.2
9032 9033 1 0.110 284512.0
9032 9034 1 0.110 284512.0
9037 9038 1 0.135 402500.8
9038 9039 1 0.137 402500.8
9039 9040 1 0.147 319657.6
9039 9044 1 0.101 363171.2
9040 9041 1 0.143 267776.0
9040 9042 1 0.110 284512.0
9040 9043 1 0.110 284512.0
9046 9047 1 0.135 402500.8
9047 9048 1 0.137 402500.8
9048 9049 1 0.147 319657.6
9048 9052 1 0.101 363171.2
9049 9050 1 0.110 284512.0
9049 9051 1 0.110 284512.0
9054 9055 1 0.135 402500.8
9055 9056 1 0.137 402500.8
9056 9057 1 0.147 319657.6
9056 9060 1 0.101 363171.2
9057 9058 1 0.110 284512.0
9057 9059 1 0.110 284512.0
9062 9063 1 0.135 402500.8
9063 9064 1 0.137 402500.8
9064 9065 1 0.147 319657.6
9064 9068 1 0.101 363171.2
9065 9066 1 0.110 284512.0
9065 9067 1 0.110 284512.0
9070 9071 1 0.135 402500.8
9071 9072 1 0.137 402500.8
9072 9073 1 0.147 319657.6
9072 9076 1 0.101 363171.2
9073 9074 1 0.110 284512.0
9073 9075 1 0.110 284512.0
9078 9079 1 0.135 402500.8
9079 9080 1 0.137 402500.8
9080 9081 1 0.147 319657.6
9080 9084 1 0.101 363171.2
9081 9082 1 0.110 284512.0
9081 9083 1 0.110 284512.0
9086 9087 1 0.135 402500.8
9087 9088 1 0.137 402500.8
9088 9089 1 0.147 319657.6
9088 9092 1 0.101 363171.2
9089 9090 1 0.110 284512.0
9089 9091 1 0.110 284512.0
9094 9095 1 0.135 402500.8
9095 9096 1 0.137 402500.8
9096 9097 1 0.147 319657.6
9096 9101 1 0.101 363171.2
9097 9098 1 0.143 267776.0
9097 9099 1 0.110 284512.0
9097 9100 1 0.110 284512.0
9103 9104 1 0.135 402500.8
9104 9105 1 0.137 402500.8
9105 9106 1 0.147 319657.6
9105 9109 1 0.101 363171.2
9106 9107 1 0.110 284512.0
9106 9108 1 0.110 284512.0
9111 9112 1 0.135 402500.8
9112 9113 1 0.137 402500.8
9113 9114 1 0.147 319657.6
9113 9117 1 0.101 363171.2
9114 9115 1 0.110 284512.0
9114 9116 1 0.110 284512.0
9119 9120 1 0.135 402500.8
9120 9121 1 0.137 402500.8
9121 9122 1 0.147 319657.6
9121 9126 1 0.101 363171.2
9122 9123 1 0.143 267776.0
9122 9124 1 0.110 284512.0
9122 9125 1 0.110 284512.0
9128 9129 1 0.135 402500.8
9129 9130 1 0.137 402500.8
9130 9131 1 0.147 319657.6
9130 9134 1 0.101 363171.2
9131 9132 1 0.110 284512.0
9131 9133 1 0.110 284512.0
9136 9137 1 0.135 402500.8
9137 9138 1 0.137 402500.8
9138 9139 1 0.147 319657.6
9138 9144 1 0.101 363171.2
9139 9140 1 0.143 267776.0
9139 9142 1 0.110 284512.0
9139 9143 1 0.110 284512.0
9140 9141 1 0.098 462750.4
9146 9147 1 0.135 402500.8
9147 9148 1 0.137 402500.8
9148 9149 1 0.147 319657.6
9148 9154 1 0.101 363171.2
9149 9150 1 0.143 267776.0
9149 9152 1 0.110 284512.0
9149 9153 1 0.110 284512.0
9150 9151 1 0.097 462750.4
9156 9157 1 0.135 402500.8
9157 9158 1 0.137 402500.8
9158 9159 1 0.147 319657.6
9158 9163 1 0.101 363171.2
9159 9160 1 0.143 267776.0
9159 9161 1 0.110 284512.0
9159 9162 1 0.110 284512.0
9165 9166 1 0.135 402500.8
9166 9167 1 0.137 402500.8
9167 9168 1 0.147 319657.6
9167 9171 1 0.101 363171.2
9168 9169 1 0.110 284512.0
9168 9170 1 0.110 284512.0
9173 9174 1 0.135 402500.8
9174 9175 1 0.137 402500.8
9175 9176 1 0.147 319657.6
9175 9179 1 0.101 363171.2
9176 9177 1 0.110 284512.0
9176 9178 1 0.110 284512.0
9181 9182 1 0.135 402500.8
9182 9183 1 0.137 402500.8
9183 9184 1 0.147 319657.6
9183 9187 1 0.101 363171.2
9184 9185 1 0.110 284512.0
9184 9186 1 0.110 284512.0
9189 9190 1 0.135 402500.8
9190 9191 1 0.137 402500.8
9191 9192 1 0.147 319657.6
9191 9195 1 0.101 363171.2
9192 9193 1 0.110 284512.0
9192 9194 1 0.110 284512.0
9197 9198 1 0.135 402500.8
9198 9199 1 0.137 402500.8
9199 9200 1 0.147 319657.6
9199 9203 1 0.101 363171.2
9200 9201 1 0.110 284512.0
9200 9202 1 0.110 284512.0
9205 9206 1 0.135 402500.8
9206 9207 1 0.137 402500.8
9207 9208 1 0.147 319657.6
9207 9212 1 0.101 363171.2
9208 9209 1 0.143 267776.0
9208 9210 1 0.110 284512.0
9208 9211 1 0.110 284512.0
9214 9215 1 0.135 402500.8
9215 9216 1 0.137 402500.8
9216 9217 1 0.147 319657.6
9216 9220 1 0.101 363171.2
9217 9218 1 0.110 284512.0
9217 9219 1 0.110 284512.0
9222 9223 1 0.135 402500.8
9223 9224 1 0.137 402500.8
9224 9225 1 0.147 319657.6
9224 9228 1 0.101 363171.2
9225 9226 1 0.110 284512.0
9225 9227 1 0.110 284512.0
9230 9231 1 0.135 402500.8
9231 9232 1 0.137 402500.8
9232 9233 1 0.147 319657.6
9232 9236 1 0.101 363171.2
9233 9234 1 0.110 284512.0
9233 9235 1 0.110 284512.0
9238 9239 1 0.135 402500.8
9239 9240 1 0.137 402500.8
9240 9241 1 0.147 319657.6
9240 9245 1 0.101 363171.2
9241 9242 1 0.143 267776.0
9241 9243 1 0.110 284512.0
9241 9244 1 0.110 284512.0
9247 9248 1 0.135 402500.8
9248 9249 1 0.137 402500.8
9249 9250 1 0.147 319657.6
9249 9253 1 0.101 363171.2
9250 9251 1 0.110 284512.0
9250 9252 1 0.110 284512.0
9255 9256 1 0.135 402500.8
9256 9257 1 0.137 402500.8
9257 9258 1 0.147 319657.6
9257 9261 1 0.101 363171.2
9258 9259 1 0.110 284512.0
9258 9260 1 0.110 284512.0
9263 9264 1 0.135 402500.8
9264 9265 1 0.137 402500.8
9265 9266 1 0.147 319657.6
9265 9269 1 0.101 363171.2
9266 9267 1 0.110 284512.0
9266 9268 1 0.110 284512.0
9271 9272 1 0.135 402500.8
9272 9273 1 0.137 402500.8
9273 9274 1 0.147 319657.6
9273 9277 1 0.101 363171.2
9274 9275 1 0.110 284512.0
9274 9276 1 0.110 284512.0
9279 9280 1 0.135 402500.8
9280 9281 1 0.137 402500.8
9281 9282 1 0.147 319657.6
9281 9285 1 0.101 363171.2
9282 9283 1 0.110 284512.0
9282 9284 1 0.110 284512.0
9287 9288 1 0.135 402500.8
9288 9289 1 0.137 402500.8
9289 9290 1 0.147 319657.6
9289 9293 1 0.101 363171.2
9290 9291 1 0.110 284512.0
9290 9292 1 0.110 284512.0
9295 9296 1 0.135 402500.8
9296 9297 1 0.137 402500.8
9297 9298 1 0.147 319657.6
9297 9303 1 0.101 363171.2
9298 9299 1 0.143 267776.0
9298 9301 1 0.110 284512.0
9298 9302 1 0.110 284512.0
9299 9300 1 0.097 462750.4
9305 9306 1 0.135 402500.8
9306 9307 1 0.137 402500.8
9307 9308 1 0.147 319657.6
9307 9311 1 0.101 363171.2
9308 9309 1 0.110 284512.0
9308 9310 1 0.110 284512.0
9313 9314 1 0.135 402500.8
9314 9315 1 0.137 402500.8
9315 9316 1 0.147 319657.6
9315 9320 1 0.101 363171.2
9316 9317 1 0.143 267776.0
9316 9318 1 0.110 284512.0
9316 9319 1 0.110 284512.0
9322 9323 1 0.135 402500.8
9323 9324 1 0.137 402500.8
9324 9325 1 0.147 319657.6
9324 9329 1 0.101 363171.2
9325 9326 1 0.143 267776.0
9325 9327 1 0.110 284512.0
9325 9328 1 0.110 284512.0
9331 9332 1 0.135 402500.8
9332 9333 1 0.137 402500.8
9333 9334 1 0.147 319657.6
9333 9337 1 0.101 363171.2
9334 9335 1 0.110 284512.0
9334 9336 1 0.110 284512.0
9339 9340 1 0.135 402500.8
9340 9341 1 0.137 402500.8
9341 9342 1 0.147 319657.6
9341 9345 1 0.101 363171.2
9342 9343 1 0.110 284512.0
9342 9344 1 0.110 284512.0
9347 9348 1 0.135 402500.8
9348 9349 1 0.137 402500.8
9349 9350 1 0.147 319657.6
9349 9354 1 0.101 363171.2
9350 9351 1 0.143 267776.0
9350 9352 1 0.110 284512.0
9350 9353 1 0.110 284512.0
9356 9357 1 0.135 402500.8
9357 9358 1 0.137 402500.8
9358 9359 1 0.147 319657.6
9358 9362 1 0.101 363171.2
9359 9360 1 0.110 284512.0
9359 9361 1 0.110 284512.0
9364 9365 1 0.135 402500.8
9365 9366 1 0.137 402500.8
9366 9367 1 0.147 319657.6
9366 9370 1 0.101 363171.2
9367 9368 1 0.110 284512.0
9367 9369 1 0.110 284512.0
9372 9373 1 0.135 402500.8
9373 9374 1 0.137 402500.8
9374 9375 1 0.147 319657.6
9374 9380 1 0.101 363171.2
9375 9376 1 0.143 267776.0
9375 9378 1 0.110 284512.0
9375 9379 1 0.110 284512.0
9376 9377 1 0.097 462750.4
9382 9383 1 0.135 402500.8
9383 9384 1 0.137 402500.8
9384 9385 1 0.147 319657.6
9384 9389 1 0.101 363171.2
9385 9386 1 0.143 267776.0
9385 9387 1 0.110 284512.0
9385 9388 1 0.110 284512.0
9391 9392 1 0.135 402500.8
9392 9393 1 0.137 402500.8
9393 9394 1 0.147 319657.6
9393 9397 1 0.101 363171.2
9394 9395 1 0.110 284512.0
9394 9396 1 0.110 284512.0
9399 9400 1 0.135 402500.8
9400 9401 1 0.137 402500.8
9401 9402 1 0.147 319657.6
9401 9405 1 0.101 363171.2
9402 9403 1 0.110 284512.0
9402 9404 1 0.110 284512.0
9407 9408 1 0.135 402500.8
9408 9409 1 0.137 402500.8
9409 9410 1 0.147 319657.6
9409 9413 1 0.101 363171.2
9410 9411 1 0.110 284512.0
9410 9412 1 0.110 284512.0
9415 9416 1 0.135 402500.8
9416 9417 1 0.137 402500.8
9417 9418 1 0.147 319657.6
9417 9421 1 0.101 363171.2
9418 9419 1 0.110 284512.0
9418 9420 1 0.110 284512.0
9423 9424 1 0.135 402500.8
9424 9425 1 0.137 402500.8
9425 9426 1 0.147 319657.6
9425 9429 1 0.101 363171.2
9426 9427 1 0.110 284512.0
9426 9428 1 0.110 284512.0
9431 9432 1 0.135 402500.8
9432 9433 1 0.137 402500.8
9433 9434 1 0.147 319657.6
9433 9437 1 0.101 363171.2
9434 9435 1 0.110 284512.0
9434 9436 1 0.110 284512.0
9439 9440 1 0.135 402500.8
9440 9441 1 0.137 402500.8
9441 9442 1 0.147 319657.6
9441 9446 1 0.101 363171.2
9442 9443 1 0.143 267776.0
9442 9444 1 0.110 284512.0
9442 9445 1 0.110 284512.0
9448 9449 1 0.135 402500.8
9449 9450 1 0.137 402500.8
9450 9451 1 0.147 319657.6
9450 9454 1 0.101 363171.2
9451 9452 1 0.110 284512.0
9451 9453 1 0.110 284512.0
9456 9457 1 0.135 402500.8
9457 9458 1 0.137 402500.8
9458 9459 1 0.147 319657.6
9458 9462 1 0.101 363171.2
9459 9460 1 0.110 284512.0
9459 9461 1 0.110 284512.0
9464 9465 1 0.135 402500.8
9465 9466 1 0.137 402500.8
9466 9467 1 0.147 319657.6
9466 9470 1 0.101 363171.2
9467 9468 1 0.110 284512.0
9467 9469 1 0.110 284512.0
9472 9473 1 0.135 402500.8
9473 9474 1 0.137 402500.8
9474 9475 1 0.147 319657.6
9474 9478 1 0.101 363171.2
9475 9476 1 0.110 284512.0
9475 9477 1 0.110 284512.0
9480 9481 1 0.135 402500.8
9481 9482 1 0.137 402500.8
9482 9483 1 0.147 319657.6
9482 9487 1 0.101 363171.2
9483 9484 1 0.143 267776.0
9483 9485 1 0.110 284512.0
9483 9486 1 0.110 284512.0
9489 9490 1 0.135 402500.8
9490 9491 1 0.137 402500.8
9491 9492 1 0.147 319657.6
9491 9496 1 0.101 363171.2
9492 9493 1 0.143 267776.0
9492 9494 1 0.110 284512.0
9492 9495 1 0.110 284512.0
9498 9499 1 0.135 402500.8
9499 9500 1 0.137 402500.8
9500 9501 1 0.147 319657.6
9500 9504 1 0.101 363171.2
9501 9502 1 0.110 284512.0
9501 9503 1 0.110 284512.0
9506 9507 1 0.135 402500.8
9507 9508 1 0.137 402500.8
9508 9509 1 0.147 319657.6
9508 9513 1 0.101 363171.2
9509 9510 1 0.143 267776.0
9509 9511 1 0.110 284512.0
9509 9512 1 0.110 284512.0
9515 9516 1 0.135 402500.8
9516 9517 1 0.137 402500.8
9517 9518 1 0.147 319657.6
9517 9522 1 0.101 363171.2
9518 9519 1 0.143 267776.0
9518 9520 1 0.110 284512.0
9518 9521 1 0.110 284512.0
9524 9525 1 0.135 402500.8
9525 9526 1 0.137 402500.8
9526 9527 1 0.147 319657.6
9526 9530 1 0.101 363171.2
9527 9528 1 0.110 284512.0
9527 9529 1 0.110 284512.0
9532 9533 1 0.135 402500.8
9533 9534 1 0.137 402500.8
9534 9535 1 0.147 319657.6
9534 9539 1 0.101 363171.2
9535 9536 1 0.143 267776.0
9535 9537 1 0.110 284512.0
9535 9538 1 0.110 284512.0
9541 9542 1 0.135 402500.8
9542 9543 1 0.137 402500.8
9543 9544 1 0.147 319657.6
9543 9547 1 0.101 363171.2
9544 9545 1 0.110 284512.0
9544 9546 1 0.110 284512.0
9549 9550 1 0.135 402500.8
9550 9551 1 0.137 402500.8
9551 9552 1 0.147 319657.6
9551 9556 1 0.101 363171.2
9552 9553 1 0.143 267776.0
9552 9554 1 0.110 284512.0
9552 9555 1 0.110 284512.0
9558 9559 1 0.135 402500.8
9559 9560 1 0.137 402500.8
9560 9561 1 0.147 319657.6
9560 9564 1 0.101 363171.2
9561 9562 1 0.110 284512.0
9561 9563 1 0.110 284512.0
9566 9567 1 0.135 402500.8
9567 9568 1 0.137 402500.8
9568 9569 1 0.147 319657.6
9568 9573 1 0.101 363171.2
9569 9570 1 0.143 267776.0
9569 9571 1 0.110 284512.0
9569 9572 1 0.110 284512.0
9575 9576 1 0.135 402500.8
9576 9577 1 0.137 402500.8
9577 9578 1 0.147 319657.6
9577 9583 1 0.101 363171.2
9578 9579 1 0.143 267776.0
9578 9581 1 0.110 284512.0
9578 9582 1 0.110 284512.0
9579 9580 1 0.097 462750.4
9585 9586 1 0.135 402500.8
9586 9587 1 0.137 402500.8
9587 9588 1 0.147 319657.6
9587 9592 1 0.101 363171.2
9588 9589 1 0.143 267776.0
9588 9590 1 0.110 284512.0
9588 9591 1 0.110 284512.0
9594 9595 1 0.135 402500.8
9595 9596 1 0.137 402500.8
9596 9597 1 0.147 319657.6
9596 9601 1 0.101 363171.2
9597 9598 1 0.143 267776.0
9597 9599 1 0.110 284512.0
9597 9600 1 0.110 284512.0
9603 9604 1 0.135 402500.8
9604 9605 1 0.137 402500.8
9605 9606 1 0.147 319657.6
9605 9609 1 0.101 363171.2
9606 9607 1 0.110 284512.0
9606 9608 1 0.110 284512.0
9611 9612 1 0.135 402500.8
9612 9613 1 0.137 402500.8
9613 9614 1 0.147 319657.6
9613 9617 1 0.101 363171.2
9614 9615 1 0.110 284512.0
9614 9616 1 0.110 284512.0
9619 9620 1 0.135 402500.8
9620 9621 1 0.137 402500.8
9621 9622 1 0.147 319657.6
9621 9625 1 0.101 363171.2
9622 9623 1 0.110 284512.0
9622 9624 1 0.110 284512.0
9627 9628 1 0.135 402500.8
9628 9629 1 0.137 402500.8
9629 9630 1 0.147 319657.6
9629 9633 1 0.101 363171.2
9630 9631 1 0.110 284512.0
9630 9632 1 0.110 284512.0
9635 9636 1 0.135 402500.8
9636 9637 1 0.137 402500.8
9637 9638 1 0.147 319657.6
9637 9641 1 0.101 363171.2
9638 9639 1 0.110 284512.0
9638 9640 1 0.110 284512.0
9643 9644 1 0.135 402500.8
9644 9645 1 0.137 402500.8
9645 9646 1 0.147 319657.6
9645 9651 1 0.101 363171.2
9646 9647 1 0.143 267776.0
9646 9649 1 0.110 284512.0
9646 9650 1 0.110 284512.0
9647 9648 1 0.098 462750.4
9653 9654 1 0.135 402500.8
9654 9655 1 0.137 402500.8
9655 9656 1 0.147 319657.6
9655 9659 1 0.101 363171.2
9656 9657 1 0.110 284512.0
9656 9658 1 0.110 284512.0
9661 9662 1 0.135 402500.8
9662 9663 1 0.137 402500.8
9663 9664 1 0.147 319657.6
9663 9667 1 0.101 363171.2
9664 9665 1 0.110 284512.0
9664 9666 1 0.110 284512.0
9669 9670 1 0.135 402500.8
9670 9671 1 0.137 402500.8
9671 9672 1 0.147 319657.6
9671 9675 1 0.101 363171.2
9672 9673 1 0.110 284512.0
9672 9674 1 0.110 284512.0
9677 9678 1 0.135 402500.8
9678 9679 1 0.137 402500.8
9679 9680 1 0.147 319657.6
9679 9683 1 0.101 363171.2
9680 9681 1 0.110 284512.0
9680 9682 1 0.110 284512.0
9685 9686 1 0.135 402500.8
9686 9687 1 0.137 402500.8
9687 9688 1 0.147 319657.6
9687 9691 1 0.101 363171.2
9688 9689 1 0.110 284512.0
9688 9690 1 0.110 284512.0
9693 9694 1 0.135 402500.8
9694 9695 1 0.137 402500.8
9695 9696 1 0.147 319657.6
9695 9699 1 0.101 363171.2
9696 9697 1 0.110 284512.0
9696 9698 1 0.110 284512.0
9701 9702 1 0.135 402500.8
9702 9703 1 0.137 402500.8
9703 9704 1 0.147 319657.6
9703 9707 1 0.101 363171.2
9704 9705 1 0.110 284512.0
9704 9706 1 0.110 284512.0
9709 9710 1 0.135 402500.8
9710 9711 1 0.137 402500.8
9711 9712 1 0.147 319657.6
9711 9716 1 0.101 363171.2
9712 9713 1 0.143 267776.0
9712 9714 1 0.110 284512.0
9712 9715 1 0.110 284512.0
9718 9719 1 0.135 402500.8
9719 9720 1 0.137 402500.8
9720 9721 1 0.147 319657.6
9720 9724 1 0.101 363171.2
9721 9722 1 0.110 284512.0
9721 9723 1 0.110 284512.0
9726 9727 1 0.135 402500.8
9727 9728 1 0.137 402500.8
9728 9729 1 0.147 319657.6
9728 9732 1 0.101 363171.2
9729 9730 1 0.110 284512.0
9729 9731 1 0.110 284512.0
9734 9735 1 0.135 402500.8
9735 9736 1 0.137 402500.8
9736 9737 1 0.147 319657.6
9736 9740 1 0.101 363171.2
9737 9738 1 0.110 284512.0
9737 9739 1 0.110 284512.0
9742 9743 1 0.135 402500.8
9743 9744 1 0.137 402500.8
9744 9745 1 0.147 319657.6
9744 9749 1 0.101 363171.2
9745 9746 1 0.143 267776.0
9745 9747 1 0.110 284512.0
9745 9748 1 0.110 284512.0
9751 9752 1 0.135 402500.8
9752 9753 1 0.137 402500.8
9753 9754 1 0.147 319657.6
9753 9757 1 0.101 363171.2
9754 9755 1 0.110 284512.0
9754 9756 1 0.110 284512.0
9759 9760 1 0.135 402500.8
9760 9761 1 0.137 402500.8
9761 9762 1 0.147 319657.6
9761 9767 1 0.101 363171.2
9762 9763 1 0.143 267776.0
9762 9765 1 0.110 284512.0
9762 9766 1 0.110 284512.0
9763 9764 1 0.098 462750.4
9769 9770 1 0.135 402500.8
9770 9771 1 0.137 402500.8
9771 9772 1 0.147 319657.6
9771 9776 1 0.101 363171.2
9772 9773 1 0.143 267776.0
9772 9774 1 0.110 284512.0
9772 9775 1 0.110 284512.0
9778 9779 1 0.135 402500.8
9779 9780 1 0.137 402500.8
9780 9781 1 0.147 319657.6
9780 9784 1 0.101 363171.2
9781 9782 1 0.110 284512.0
9781 9783 1 0.110 284512.0
9786 9787 1 0.135 402500.8
9787 9788 1 0.137 402500.8
9788 9789 1 0.147 319657.6
9788 9793 1 0.101 363171.2
9789 9790 1 0.143 267776.0
9789 9791 1 0.110 284512.0
9789 9792 1 0.110 284512.0
9795 9796 1 0.135 402500.8
9796 9797 1 0.137 402500.8
9797 9798 1 0.147 319657.6
9797 9803 1 0.101 363171.2
9798 9799 1 0.143 267776.0
9798 9801 1 0.110 284512.0
9798 9802 1 0.110 284512.0
9799 9800 1 0.098 462750.4
9805 9806 1 0.135 402500.8
9806 9807 1 0.137 402500.8
9807 9808 1 0.147 319657.6
9807 9813 1 0.101 363171.2
9808 9809 1 0.143 267776.0
9808 9811 1 0.110 284512.0
9808 9812 1 0.110 284512.0
9809 9810 1 0.097 462750.4
9815 9816 1 0.135 402500.8
9816 9817 1 0.137 402500.8
9817 9818 1 0.147 319657.6
9817 9822 1 0.101 363171.2
9818 9819 1 0.143 267776.0
9818 9820 1 0.110 284512.0
9818 9821 1 0.110 284512.0
9824 9825 1 0.135 402500.8
9825 9826 1 0.137 402500.8
9826 9827 1 0.147 319657.6
9826 9831 1 0.101 363171.2
9827 9828 1 0.143 267776.0
9827 9829 1 0.110 284512.0
9827 9830 1 0.110 284512.0
9833 9834 1 0.135 402500.8
9834 9835 1 0.137 402500.8
9835 9836 1 0.147 319657.6
9835 9839 1 0.101 363171.2
9836 9837 1 0.110 284512.0
9836 9838 1 0.110 284512.0
9841 9842 1 0.135 402500.8
9842 9843 1 0.137 402500.8
9843 9844 1 0.147 319657.6
9843 9848 1 0.101 363171.2
9844 9845 1 0.143 267776.0
9844 9846 1 0.110 284512.0
9844 9847 1 0.110 284512.0
9850 9851 1 0.135 402500.8
9851 9852 1 0.137 402500.8
9852 9853 1 0.147 319657.6
9852 9856 1 0.101 363171.2
9853 9854 1 0.110 284512.0
9853 9855 1 0.110 284512.0
9858 9859 1 0.135 402500.8
9859 9860 1 0.137 402500.8
9860 9861 1 0.147 319657.6
9860 9865 1 0.101 363171.2
9861 9862 1 0.143 267776.0
9861 9863 1 0.110 284512.0
9861 9864 1 0.110 284512.0
9867 9868 1 0.135 402500.8
9868 9869 1 0.137 402500.8
9869 9870 1 0.147 319657.6
9869 9873 1 0.101 363171.2
9870 9871 1 0.110 284512.0
9870 9872 1 0.110 284512.0
9875 9876 1 0.135 402500.8
9876 9877 1 0.137 402500.8
9877 9878 1 0.147 319657.6
9877 9883 1 0.101 363171.2
9878 9879 1 0.143 267776.0
9878 9881 1 0.110 284512.0
9878 9882 1 0.110 284512.0
9879 9880 1 0.098 462750.4
9885 9886 1 0.135 402500.8
9886 9887 1 0.137 402500.8
9887 9888 1 0.147 319657.6
9887 9891 1 0.101 363171.2
9888 9889 1 0.110 284512.0
9888 9890 1 0.110 284512.0
9893 9894 1 0.135 402500.8
9894 9895 1 0.137 402500.8
9895 9896 1 0.147 319657.6
9895 9899 1 0.101 363171.2
9896 9897 1 0.110 284512.0
9896 9898 1 0.110 284512.0
9901 9902 1 0.135 402500.8
9902 9903 1 0.137 402500.8
9903 9904 1 0.147 319657.6
9903 9907 1 0.101 363171.2
9904 9905 1 0.110 284512.0
9904 9906 1 0.110 284512.0
9909 9910 1 0.135 402500.8
9910 9911 1 0.137 402500.8
9911 9912 1 0.147 319657.6
9911 9916 1 0.101 363171.2
9912 9913 1 0.143 267776.0
9912 9914 1 0.110 284512.0
9912 9915 1 0.110 284512.0
9918 9919 1 0.135 402500.8
9919 9920 1 0.137 402500.8
9920 9921 1 0.147 319657.6
9920 9924 1 0.101 363171.2
9921 9922 1 0.110 284512.0
9921 9923 1 0.110 284512.0
9926 9927 1 0.135 402500.8
9927 9928 1 0.137 402500.8
9928 9929 1 0.147 319657.6
9928 9932 1 0.101 363171.2
9929 9930 1 0.110 284512.0
9929 9931 1 0.110 284512.0
9934 9935 1 0.135 402500.8
9935 9936 1 0.137 402500.8
9936 9937 1 0.147 319657.6
9936 9941 1 0.101 363171.2
9937 9938 1 0.143 267776.0
9937 9939 1 0.110 284512.0
9937 9940 1 0.110 284512.0
9943 9944 1 0.135 402500.8
9944 9945 1 0.137 402500.8
9945 9946 1 0.147 319657.6
9945 9949 1 0.101 363171.2
9946 9947 1 0.110 284512.0
9946 9948 1 0.110 284512.0
9951 9952 1 0.135 402500.8
9952 9953 1 0.137 402500.8
9953 9954 1 0.147 319657.6
9953 9957 1 0.101 363171.2
9954 9955 1 0.110 284512.0
9954 9956 1 0.110 284512.0
9959 9960 1 0.135 402500.8
9960 9961 1 0.137 402500.8
9961 9962 1 0.147 319657.6
9961 9965 1 0.101 363171.2
9962 9963 1 0.110 284512.0
9962 9964 1 0.110 284512.0
9967 9968 1 0.135 402500.8
9968 9969 1 0.137 402500.8
9969 9970 1 0.147 319657.6
9969 9973 1 0.101 363171.2
9970 9971 1 0.110 284512.0
9970 9972 1 0.110 284512.0
9975 9976 1 0.135 402500.8
9976 9977 1 0.137 402500.8
9977 9978 1 0.147 319657.6
9977 9981 1 0.101 363171.2
9978 9979 1 0.110 284512.0
9978 9980 1 0.110 284512.0
9983 9984 1 0.135 402500.8
9984 9985 1 0.137 402500.8
9985 9986 1 0.147 319657.6
9985 9990 1 0.101 363171.2
9986 9987 1 0.143 267776.0
9986 9988 1 0.110 284512.0
9986 9989 1 0.110 284512.0
9992 9993 1 0.135 402500.8
9993 9994 1 0.137 402500.8
9994 9995 1 0.147 319657.6
9994 9998 1 0.101 363171.2
9995 9996 1 0.110 284512.0
9995 9997 1 0.110 284512.0
10000 10001 1 0.135 402500.8
10001 10002 1 0.137 402500.8
10002 10003 1 0.147 319657.6
10002 10007 1 0.101 363171.2
10003 10004 1 0.143 267776.0
10003 10005 1 0.110 284512.0
10003 10006 1 0.110 284512.0
10009 10010 1 0.135 402500.8
10010 10011 1 0.137 402500.8
10011 10012 1 0.147 319657.6
10011 10015 1 0.101 363171.2
10012 10013 1 0.110 284512.0
10012 10014 1 0.110 284512.0
10017 10018 1 0.135 402500.8
10018 10019 1 0.137 402500.8
10019 10020 1 0.147 319657.6
10019 10023 1 0.101 363171.2
10020 10021 1 0.110 284512.0
10020 10022 1 0.110 284512.0
10025 10026 1 0.135 402500.8
10026 10027 1 0.137 402500.8
10027 10028 1 0.147 319657.6
10027 10031 1 0.101 363171.2
10028 10029 1 0.110 284512.0
10028 10030 1 0.110 284512.0
10033 10034 1 0.135 402500.8
10034 10035 1 0.137 402500.8
10035 10036 1 0.147 319657.6
10035 10040 1 0.101 363171.2
10036 10037 1 0.143 267776.0
10036 10038 1 0.110 284512.0
10036 10039 1 0.110 284512.0
10042 10043 1 0.135 402500.8
10043 10044 1 0.137 402500.8
10044 10045 1 0.147 319657.6
10044 10048 1 0.101 363171.2
10045 10046 1 0.110 284512.0
10045 10047 1 0.110 284512.0
10050 10051 1 0.135 402500.8
10051 10052 1 0.137 402500.8
10052 10053 1 0.147 319657.6
10052 10056 1 0.101 363171.2
10053 10054 1 0.110 284512.0
10053 10055 1 0.110 284512.0
10058 10059 1 0.135 402500.8
10059 10060 1 0.137 402500.8
10060 10061 1 0.147 319657.6
10060 10064 1 0.101 363171.2
10061 10062 1 0.110 284512.0
10061 10063 1 0.110 284512.0
10066 10067 1 0.135 402500.8
10067 10068 1 0.137 402500.8
10068 10069 1 0.147 319657.6
10068 10073 1 0.101 363171.2
10069 10070 1 0.143 267776.0
10069 10071 1 0.110 284512.0
10069 10072 1 0.110 284512.0
10075 10076 1 0.135 402500.8
10076 10077 1 0.137 402500.8
10077 10078 1 0.147 319657.6
10077 10081 1 0.101 363171.2
10078 10079 1 0.110 284512.0
10078 10080 1 0.110 284512.0
10083 10084 1 0.135 402500.8
10084 10085 1 0.137 402500.8
10085 10086 1 0.147 319657.6
10085 10089 1 0.101 363171.2
10086 10087 1 0.110 284512.0
10086 10088 1 0.110 284512.0
10091 10092 1 0.135 402500.8
10092 10093 1 0.137 402500.8
10093 10094 1 0.147 319657.6
10093 10097 1 0.101 363171.2
10094 10095 1 0.110 284512.0
10094 10096 1 0.110 284512.0
10099 10100 1 0.135 402500.8
10100 10101 1 0.137 402500.8
10101 10102 1 0.147 319657.6
10101 10105 1 0.101 363171.2
10102 10103 1 0.110 284512.0
10102 10104 1 0.110 284512.0
10107 10108 1 0.135 402500.8
10108 10109 1 0.137 402500.8
10109 10110 1 0.147 319657.6
10109 10113 1 0.101 363171.2
10110 10111 1 0.110 284512.0
10110 10112 1 0.110 284512.0
10115 10116 1 0.135 402500.8
10116 10117 1 0.137 402500.8
10117 10118 1 0.147 319657.6
10117 10122 1 0.101 363171.2
10118 10119 1 0.143 267776.0
10118 10120 1 0.110 284512.0
10118 10121 1 0.110 284512.0
10124 10125 1 0.135 402500.8
10125 10126 1 0.137 402500.8
10126 10127 1 0.147 319657.6
10126 10130 1 0.101 363171.2
10127 10128 1 0.110 284512.0
10127 10129 1 0.110 284512.0
10132 10133 1 0.135 402500.8
10133 10134 1 0.137 402500.8
10134 10135 1 0.147 319657.6
10134 10138 1 0.101 363171.2
10135 10136 1 0.110 284512.0
10135 10137 1 0.110 284512.0
10140 10141 1 0.135 402500.8
10141 10142 1 0.137 402500.8
10142 10143 1 0.147 319657.6
10142 10146 1 0.101 363171.2
10143 10144 1 0.110 284512.0
10143 10145 1 0.110 284512.0
10148 10149 1 0.135 402500.8
10149 10150 1 0.137 402500.8
10150 10151 1 0.147 319657.6
10150 10154 1 0.101 363171.2
10151 10152 1 0.110 284512.0
10151 10153 1 0.110 284512.0
10156 10157 1 0.135 402500.8
10157 10158 1 0.137 402500.8
10158 10159 1 0.147 319657.6
10158 10162 1 0.101 363171.2
10159 10160 1 0.110 284512.0
10159 10161 1 0.110 284512.0
10164 10165 1 0.135 402500.8
10165 10166 1 0.137 402500.8
10166 10167 1 0.147 319657.6
10166 10170 1 0.101 363171.2
10167 10168 1 0.110 284512.0
10167 10169 1 0.110 284512.0
10172 10173 1 0.135 402500.8
10173 10174 1 0.137 402500.8
10174 10175 1 0.147 319657.6
10174 10178 1 0.101 363171.2
10175 10176 1 0.110 284512.0
10175 10177 1 0.110 284512.0
10180 10181 1 0.135 402500.8
10181 10182 1 0.137 402500.8
10182 10183 1 0.147 319657.6
10182 10186 1 0.101 363171.2
10183 10184 1 0.110 284512.0
10183 10185 1 0.110 284512.0
10188 10189 1 0.135 402500.8
10189 10190 1 0.137 402500.8
10190 10191 1 0.147 319657.6
10190 10194 1 0.101 363171.2
10191 10192 1 0.110 284512.0
10191 10193 1 0.110 284512.0
10196 10197 1 0.135 402500.8
10197 10198 1 0.137 402500.8
10198 10199 1 0.147 319657.6
10198 10204 1 0.101 363171.2
10199 10200 1 0.143 267776.0
10199 10202 1 0.110 284512.0
10199 10203 1 0.110 284512.0
10200 10201 1 0.098 462750.4
10206 10207 1 0.135 402500.8
10207 10208 1 0.137 402500.8
10208 10209 1 0.147 319657.6
10208 10212 1 0.101 363171.2
10209 10210 1 0.110 284512.0
10209 10211 1 0.110 284512.0
10214 10215 1 0.135 402500.8
10215 10216 1 0.137 402500.8
10216 10217 1 0.147 319657.6
10216 10220 1 0.101 363171.2
10217 10218 1 0.110 284512.0
10217 10219 1 0.110 284512.0
10222 10223 1 0.135 402500.8
10223 10224 1 0.137 402500.8
10224 10225 1 0.147 319657.6
10224 10230 1 0.101 363171.2
10225 10226 1 0.143 267776.0
10225 10228 1 0.110 284512.0
10225 10229 1 0.110 284512.0
10226 10227 1 0.098 462750.4
10232 10233 1 0.135 402500.8
10233 10234 1 0.137 402500.8
10234 10235 1 0.147 319657.6
10234 10238 1 0.101 363171.2
10235 10236 1 0.110 284512.0
10235 10237 1 0.110 284512.0
10240 10241 1 0.135 402500.8
10241 10242 1 0.137 402500.8
10242 10243 1 0.147 319657.6
10242 10246 1 0.101 363171.2
10243 10244 1 0.110 284512.0
10243 10245 1 0.110 284512.0
10248 10249 1 0.135 402500.8
10249 10250 1 0.137 402500.8
10250 10251 1 0.147 319657.6
10250 10255 1 0.101 363171.2
10251 10252 1 0.143 267776.0
10251 10253 1 0.110 284512.0
10251 10254 1 0.110 284512.0
10257 10258 1 0.135 402500.8
10258 10259 1 0.137 402500.8
10259 10260 1 0.147 319657.6
10259 10263 1 0.101 363171.2
10260 10261 1 0.110 284512.0
10260 10262 1 0.110 284512.0
10265 10266 1 0.135 402500.8
10266 10267 1 0.137 402500.8
10267 10268 1 0.147 319657.6
10267 10271 1 0.101 363171.2
10268 10269 1 0.110 284512.0
10268 10270 1 0.110 284512.0
10273 10274 1 0.135 402500.8
10274 10275 1 0.137 402500.8
10275 10276 1 0.147 319657.6
10275 10279 1 0.101 363171.2
10276 10277 1 0.110 284512.0
10276 10278 1 0.110 284512.0
10281 10282 1 0.135 402500.8
10282 10283 1 0.137 402500.8
10283 10284 1 0.147 319657.6
10283 10287 1 0.101 363171.2
10284 10285 1 0.110 284512.0
10284 10286 1 0.110 284512.0
10289 10290 1 0.135 402500.8
10290 10291 1 0.137 402500.8
10291 10292 1 0.147 319657.6
10291 10295 1 0.101 363171.2
10292 10293 1 0.110 284512.0
10292 10294 1 0.110 284512.0
10297 10298 1 0.135 402500.8
10298 10299 1 0.137 402500.8
10299 10300 1 0.147 319657.6
10299 10303 1 0.101 363171.2
10300 10301 1 0.110 284512.0
10300 10302 1 0.110 284512.0
10305 10306 1 0.135 402500.8
10306 10307 1 0.137 402500.8
10307 10308 1 0.147 319657.6
10307 10312 1 0.101 363171.2
10308 10309 1 0.143 267776.0
10308 10310 1 0.110 284512.0
10308 10311 1 0.110 284512.0
10314 10315 1 0.135 402500.8
10315 10316 1 0.137 402500.8
10316 10317 1 0.147 319657.6
10316 10320 1 0.101 363171.2
10317 10318 1 0.110 284512.0
10317 10319 1 0.110 284512.0
10322 10323 1 0.135 402500.8
10323 10324 1 0.137 402500.8
10324 10325 1 0.147 319657.6
10324 10328 1 0.101 363171.2
10325 10326 1 0.110 284512.0
10325 10327 1 0.110 284512.0
10330 10331 1 0.135 402500.8
10331 10332 1 0.137 402500.8
10332 10333 1 0.147 319657.6
10332 10336 1 0.101 363171.2
10333 10334 1 0.110 284512.0
10333 10335 1 0.110 284512.0
10338 10339 1 0.135 402500.8
10339 10340 1 0.137 402500.8
10340 10341 1 0.147 319657.6
10340 10344 1 0.101 363171.2
10341 10342 1 0.110 284512.0
10341 10343 1 0.110 284512.0
10346 10347 1 0.135 402500.8
10347 10348 1 0.137 402500.8
10348 10349 1 0.147 319657.6
10348 10352 1 0.101 363171.2
10349 10350 1 0.110 284512.0
10349 10351 1 0.110 284512.0
10354 10355 1 0.135 402500.8
10355 10356 1 0.137 402500.8
10356 10357 1 0.147 319657.6
10356 10361 1 0.101 363171.2
10357 10358 1 0.143 267776.0
10357 10359 1 0.110 284512.0
10357 10360 1 0.110 284512.0
10363 10364 1 0.135 402500.8
10364 10365 1 0.137 402500.8
10365 10366 1 0.147 319657.6
10365 10369 1 0.101 363171.2
10366 10367 1 0.110 284512.0
10366 10368 1 0.110 284512.0
10371 10372 1 0.135 402500.8
10372 10373 1 0.137 402500.8
10373 10374 1 0.147 319657.6
10373 10377 1 0.101 363171.2
10374 10375 1 0.110 284512.0
10374 10376 1 0.110 284512.0
10379 10380 1 0.135 402500.8
10380 10381 1 0.137 402500.8
10381 10382 1 0.147 319657.6
10381 10386 1 0.101 363171.2
10382 10383 1 0.143 267776.0
10382 10384 1 0.110 284512.0
10382 10385 1 0.110 284512.0
10388 10389 1 0.135 402500.8
10389 10390 1 0.137 402500.8
10390 10391 1 0.147 319657.6
10390 10394 1 0.101 363171.2
10391 10392 1 0.110 284512.0
10391 10393 1 0.110 284512.0
10396 10397 1 0.135 402500.8
10397 10398 1 0.137 402500.8
10398 10399 1 0.147 319657.6
10398 10404 1 0.101 363171.2
10399 10400 1 0.143 267776.0
10399 10402 1 0.110 284512.0
10399 10403 1 0.110 284512.0
10400 10401 1 0.098 462750.4
10406 10407 1 0.135 402500.8
10407 10408 1 0.137 402500.8
10408 10409 1 0.147 319657.6
10408 10412 1 0.101 363171.2
10409 10410 1 0.110 284512.0
10409 10411 1 0.110 284512.0
10414 10415 1 0.135 402500.8
10415 10416 1 0.137 402500.8
10416 10417 1 0.147 319657.6
10416 10420 1 0.101 363171.2
10417 10418 1 0.110 284512.0
10417 10419 1 0.110 284512.0
10422 10423 1 0.135 402500.8
10423 10424 1 0.137 402500.8
10424 10425 1 0.147 319657.6
10424 10428 1 0.101 363171.2
10425 10426 1 0.110 284512.0
10425 10427 1 0.110 284512.0
10430 10431 1 0.135 402500.8
10431 10432 1 0.137 402500.8
10432 10433 1 0.147 319657.6
10432 10437 1 0.101 363171.2
10433 10434 1 0.143 267776.0
10433 10435 1 0.110 284512.0
10433 10436 1 0.110 284512.0
10439 10440 1 0.135 402500.8
10440 10441 1 0.137 402500.8
10441 10442 1 0.147 319657.6
10441 10447 1 0.101 363171.2
10442 10443 1 0.143 267776.0
10442 10445 1 0.110 284512.0
10442 10446 1 0.110 284512.0
10443 10444 1 0.098 462750.4
10449 10450 1 0.135 402500.8
10450 10451 1 0.137 402500.8
10451 10452 1 0.147 319657.6
10451 10455 1 0.101 363171.2
10452 10453 1 0.110 284512.0
10452 10454 1 0.110 284512.0
10457 10458 1 0.135 402500.8
10458 10459 1 0.137 402500.8
10459 10460 1 0.147 319657.6
10459 10463 1 0.101 363171.2
10460 10461 1 0.110 284512.0
10460 10462 1 0.110 284512.0
10465 10466 1 0.135 402500.8
10466 10467 1 0.137 402500.8
10467 10468 1 0.147 319657.6
10467 10471 1 0.101 363171.2
10468 10469 1 0.110 284512.0
10468 10470 1 0.110 284512.0
10473 10474 1 0.135 402500.8
10474 10475 1 0.137 402500.8
10475 10476 1 0.147 319657.6
10475 10479 1 0.101 363171.2
10476 10477 1 0.110 284512.0
10476 10478 1 0.110 284512.0
10481 10482 1 0.135 402500.8
10482 10483 1 0.137 402500.8
10483 10484 1 0.147 319657.6
10483 10487 1 0.101 363171.2
10484 10485 1 0.110 284512.0
10484 10486 1 0.110 284512.0
10489 10490 1 0.135 402500.8
10490 10491 1 0.137 402500.8
10491 10492 1 0.147 319657.6
10491 10495 1 0.101 363171.2
10492 10493 1 0.110 284512.0
10492 10494 1 0.110 284512.0
10497 10498 1 0.135 402500.8
10498 10499 1 0.137 402500.8
10499 10500 1 0.147 319657.6
10499 10503 1 0.101 363171.2
10500 10501 1 0.110 284512.0
10500 10502 1 0.110 284512.0
10505 10506 1 0.135 402500.8
10506 10507 1 0.137 402500.8
10507 10508 1 0.147 319657.6
10507 10511 1 0.101 363171.2
10508 10509 1 0.110 284512.0
10508 10510 1 0.110 284512.0
10513 10514 1 0.135 402500.8
10514 10515 1 0.137 402500.8
10515 10516 1 0.147 319657.6
10515 10519 1 0.101 363171.2
10516 10517 1 0.110 284512.0
10516 10518 1 0.110 284512.0
10521 10522 1 0.135 402500.8
10522 10523 1 0.137 402500.8
10523 10524 1 0.147 319657.6
10523 10528 1 0.101 363171.2
10524 10525 1 0.143 267776.0
10524 10526 1 0.110 284512.0
10524 10527 1 0.110 284512.0
10530 10531 1 0.135 402500.8
10531 10532 1 0.137 402500.8
10532 10533 1 0.147 319657.6
10532 10536 1 0.101 363171.2
10533 10534 1 0.110 284512.0
10533 10535 1 0.110 284512.0
10538 10539 1 0.135 402500.8
10539 10540 1 0.137 402500.8
10540 10541 1 0.147 319657.6
10540 10544 1 0.101 363171.2
10541 10542 1 0.110 284512.0
10541 10543 1 0.110 284512.0
10546 10547 1 0.135 402500.8
10547 10548 1 0.137 402500.8
10548 10549 1 0.147 319657.6
10548 10552 1 0.101 363171.2
10549 10550 1 0.110 284512.0
10549 10551 1 0.110 284512.0
10554 10555 1 0.135 402500.8
10555 10556 1 0.137 402500.8
10556 10557 1 0.147 319657.6
10556 10562 1 0.101 363171.2
10557 10558 1 0.143 267776.0
10557 10560 1 0.110 284512.0
10557 10561 1 0.110 284512.0
10558 10559 1 0.097 462750.4
10564 10565 1 0.135 402500.8
10565 10566 1 0.137 402500.8
10566 10567 1 0.147 319657.6
10566 10572 1 0.101 363171.2
10567 10568 1 0.143 267776.0
10567 10570 1 0.110 284512.0
10567 10571 1 0.110 284512.0
10568 10569 1 0.098 462750.4
10574 10575 1 0.135 402500.8
10575 10576 1 0.137 402500.8
10576 10577 1 0.147 319657.6
10576 10580 1 0.101 363171.2
10577 10578 1 0.110 284512.0
10577 10579 1 0.110 284512.0
10582 10583 1 0.135 402500.8
10583 10584 1 0.137 402500.8
10584 10585 1 0.147 319657.6
10584 10588 1 0.101 363171.2
10585 10586 1 0.110 284512.0
10585 10587 1 0.110 284512.0
10590 10591 1 0.135 402500.8
10591 10592 1 0.137 402500.8
10592 10593 1 0.147 319657.6
10592 10596 1 0.101 363171.2
10593 10594 1 0.110 284512.0
10593 10595 1 0.110 284512.0
10598 10599 1 0.135 402500.8
10599 10600 1 0.137 402500.8
10600 10601 1 0.147 319657.6
10600 10604 1 0.101 363171.2
10601 10602 1 0.110 284512.0
10601 10603 1 0.110 284512.0
10606 10607 1 0.135 402500.8
10607 10608 1 0.137 402500.8
10608 10609 1 0.147 319657.6
10608 10612 1 0.101 363171.2
10609 10610 1 0.110 284512.0
10609 10611 1 0.110 284512.0
10614 10615 1 0.135 402500.8
10615 10616 1 0.137 402500.8
10616 10617 1 0.147 319657.6
10616 10620 1 0.101 363171.2
10617 10618 1 0.110 284512.0
10617 10619 1 0.110 284512.0
10622 10623 1 0.135 402500.8
10623 10624 1 0.137 402500.8
10624 10625 1 0.147 319657.6
10624 10628 1 0.101 363171.2
10625 10626 1 0.110 284512.0
10625 10627 1 0.110 284512.0
10630 10631 1 0.135 402500.8
10631 10632 1 0.137 402500.8
10632 10633 1 0.147 319657.6
10632 10638 1 0.101 363171.2
10633 10634 1 0.143 267776.0
10633 10636 1 0.110 284512.0
10633 10637 1 0.110 284512.0
10634 10635 1 0.097 462750.4
10640 10641 1 0.135 402500.8
10641 10642 1 0.137 402500.8
10642 10643 1 0.147 319657.6
10642 10646 1 0.101 363171.2
10643 10644 1 0.110 284512.0
10643 10645 1 0.110 284512.0
10648 10649 1 0.135 402500.8
10649 10650 1 0.137 402500.8
10650 10651 1 0.147 319657.6
10650 10654 1 0.101 363171.2
10651 10652 1 0.110 284512.0
10651 10653 1 0.110 284512.0
10656 10657 1 0.135 402500.8
10657 10658 1 0.137 402500.8
10658 10659 1 0.147 319657.6
10658 10662 1 0.101 363171.2
10659 10660 1 0.110 284512.0
10659 10661 1 0.110 284512.0
10664 10665 1 0.135 402500.8
10665 10666 1 0.137 402500.8
10666 10667 1 0.147 319657.6
10666 10670 1 0.101 363171.2
10667 10668 1 0.110 284512.0
10667 10669 1 0.110 284512.0
10672 10673 1 0.135 402500.8
10673 10674 1 0.137 402500.8
10674 10675 1 0.147 319657.6
10674 10679 1 0.101 363171.2
10675 10676 1 0.143 267776.0
10675 10677 1 0.110 284512.0
10675 10678 1 0.110 284512.0
10681 10682 1 0.135 402500.8
10682 10683 1 0.137 402500.8
10683 10684 1 0.147 319657.6
10683 10689 1 0.101 363171.2
10684 10685 1 0.143 267776.0
10684 10687 1 0.110 284512.0
10684 10688 1 0.110 284512.0
10685 10686 1 0.097 462750.4
10691 10692 1 0.135 402500.8
10692 10693 1 0.137 402500.8
10693 10694 1 0.147 319657.6
10693 10698 1 0.101 363171.2
10694 10695 1 0.143 267776.0
10694 10696 1 0.110 284512.0
10694 10697 1 0.110 284512.0
10700 10701 1 0.135 402500.8
10701 10702 1 0.137 402500.8
10702 10703 1 0.147 319657.6
10702 10706 1 0.101 363171.2
10703 10704 1 0.110 284512.0
10703 10705 1 0.110 284512.0
10708 10709 1 0.135 402500.8
10709 10710 1 0.137 402500.8
10710 10711 1 0.147 319657.6
10710 10714 1 0.101 363171.2
10711 10712 1 0.110 284512.0
10711 10713 1 0.110 284512.0
10716 10717 1 0.135 402500.8
10717 10718 1 0.137 402500.8
10718 10719 1 0.147 319657.6
10718 10722 1 0.101 363171.2
10719 10720 1 0.110 284512.0
10719 10721 1 0.110 284512.0
10724 10725 1 0.135 402500.8
10725 10726 1 0.137 402500.8
10726 10727 1 0.147 319657.6
10726 10731 1 0.101 363171.2
10727 10728 1 0.143 267776.0
10727 10729 1 0.110 284512.0
10727 10730 1 0.110 284512.0
10733 10734 1 0.135 402500.8
10734 10735 1 0.137 402500.8
10735 10736 1 0.147 319657.6
10735 10739 1 0.101 363171.2
10736 10737 1 0.110 284512.0
10736 10738 1 0.110 284512.0
10741 10742 1 0.135 402500.8
10742 10743 1 0.137 402500.8
10743 10744 1 0.147 319657.6
10743 10747 1 0.101 363171.2
10744 10745 1 0.110 284512.0
10744 10746 1 0.110 284512.0
10749 10750 1 0.135 402500.8
10750 10751 1 0.137 402500.8
10751 10752 1 0.147 319657.6
10751 10755 1 0.101 363171.2
10752 10753 1 0.110 284512.0
10752 10754 1 0.110 284512.0
10757 10758 1 0.135 402500.8
10758 10759 1 0.137 402500.8
10759 10760 1 0.147 319657.6
10759 10763 1 0.101 363171.2
10760 10761 1 0.110 284512.0
10760 10762 1 0.110 284512.0
10765 10766 1 0.135 402500.8
10766 10767 1 0.137 402500.8
10767 10768 1 0.147 319657.6
10767 10771 1 0.101 363171.2
10768 10769 1 0.110 284512.0
10768 10770 1 0.110 284512.0
10773 10774 1 0.135 402500.8
10774 10775 1 0.137 402500.8
10775 10776 1 0.147 319657.6
10775 10779 1 0.101 363171.2
10776 10777 1 0.110 284512.0
10776 10778 1 0.110 284512.0
10781 10782 1 0.135 402500.8
10782 10783 1 0.137 402500.8
10783 10784 1 0.147 319657.6
10783 10787 1 0.101 363171.2
10784 10785 1 0.110 284512.0
10784 10786 1 0.110 284512.0
10789 10790 1 0.135 402500.8
10790 10791 1 0.137 402500.8
10791 10792 1 0.147 319657.6
10791 10795 1 0.101 363171.2
10792 10793 1 0.110 284512.0
10792 10794 1 0.110 284512.0
10797 10798 1 0.135 402500.8
10798 10799 1 0.137 402500.8
10799 10800 1 0.147 319657.6
10799 10803 1 0.101 363171.2
10800 10801 1 0.110 284512.0
10800 10802 1 0.110 284512.0
10805 10806 1 0.135 402500.8
10806 10807 1 0.137 402500.8
10807 10808 1 0.147 319657.6
10807 10812 1 0.101 363171.2
10808 10809 1 0.143 267776.0
10808 10810 1 0.110 284512.0
10808 10811 1 0.110 284512.0
10814 10815 1 0.135 402500.8
10815 10816 1 0.137 402500.8
10816 10817 1 0.147 319657.6
10816 10821 1 0.101 363171.2
10817 10818 1 0.143 267776.0
10817 10819 1 0.110 284512.0
10817 10820 1 0.110 284512.0
10823 10824 1 0.135 402500.8
10824 10825 1 0.137 402500.8
10825 10826 1 0.147 319657.6
10825 10829 1 0.101 363171.2
10826 10827 1 0.110 284512.0
10826 10828 1 0.110 284512.0
10831 10832 1 0.135 402500.8
10832 10833 1 0.137 402500.8
10833 10834 1 0.147 319657.6
10833 10837 1 0.101 363171.2
10834 10835 1 0.110 284512.0
10834 10836 1 0.110 284512.0
10839 10840 1 0.135 402500.8
10840 10841 1 0.137 402500.8
10841 10842 1 0.147 319657.6
10841 10847 1 0.101 363171.2
10842 10843 1 0.143 267776.0
10842 10845 1 0.110 284512.0
10842 10846 1 0.110 284512.0
10843 10844 1 0.098 462750.4
10849 10850 1 0.135 402500.8
10850 10851 1 0.137 402500.8
10851 10852 1 0.147 319657.6
10851 10855 1 0.101 363171.2
10852 10853 1 0.110 284512.0
10852 10854 1 0.110 284512.0
10857 10858 1 0.135 402500.8
10858 10859 1 0.137 402500.8
10859 10860 1 0.147 319657.6
10859 10863 1 0.101 363171.2
10860 10861 1 0.110 284512.0
10860 10862 1 0.110 284512.0
10865 10866 1 0.135 402500.8
10866 10867 1 0.137 402500.8
10867 10868 1 0.147 319657.6
10867 10872 1 0.101 363171.2
10868 10869 1 0.143 267776.0
10868 10870 1 0.110 284512.0
10868 10871 1 0.110 284512.0
10874 10875 1 0.135 402500.8
10875 10876 1 0.137 402500.8
10876 10877 1 0.147 319657.6
10876 10880 1 0.101 363171.2
10877 10878 1 0.110 284512.0
10877 10879 1 0.110 284512.0
10882 10883 1 0.135 402500.8
10883 10884 1 0.137 402500.8
10884 10885 1 0.147 319657.6
10884 10890 1 0.101 363171.2
10885 10886 1 0.143 267776.0
10885 10888 1 0.110 284512.0
10885 10889 1 0.110 284512.0
10886 10887 1 0.097 462750.4
10892 10893 1 0.135 402500.8
10893 10894 1 0.137 402500.8
10894 10895 1 0.147 319657.6
10894 10898 1 0.101 363171.2
10895 10896 1 0.110 284512.0
10895 10897 1 0.110 284512.0
10900 10901 1 0.135 402500.8
10901 10902 1 0.137 402500.8
10902 10903 1 0.147 319657.6
10902 10906 1 0.101 363171.2
10903 10904 1 0.110 284512.0
10903 10905 1 0.110 284512.0
10908 10909 1 0.135 402500.8
10909 10910 1 0.137 402500.8
10910 10911 1 0.147 319657.6
10910 10914 1 0.101 363171.2
10911 10912 1 0.110 284512.0
10911 10913 1 0.110 284512.0
10916 10917 1 0.135 402500.8
10917 10918 1 0.137 402500.8
10918 10919 1 0.147 319657.6
10918 10922 1 0.101 363171.2
10919 10920 1 0.110 284512.0
10919 10921 1 0.110 284512.0
10924 10925 1 0.135 402500.8
10925 10926 1 0.137 402500.8
10926 10927 1 0.147 319657.6
10926 10930 1 0.101 363171.2
10927 10928 1 0.110 284512.0
10927 10929 1 0.110 284512.0
10932 10933 1 0.135 402500.8
10933 10934 1 0.137 402500.8
10934 10935 1 0.147 319657.6
10934 10938 1 0.101 363171.2
10935 10936 1 0.110 284512.0
10935 10937 1 0.110 284512.0
10940 10941 1 0.135 402500.8
10941 10942 1 0.137 402500.8
10942 10943 1 0.147 319657.6
10942 10947 1 0.101 363171.2
10943 10944 1 0.143 267776.0
10943 10945 1 0.110 284512.0
10943 10946 1 0.110 284512.0
10949 10950 1 0.135 402500.8
10950 10951 1 0.137 402500.8
10951 10952 1 0.147 319657.6
10951 10957 1 0.101 363171.2
10952 10953 1 0.143 267776.0
10952 10955 1 0.110 284512.0
10952 10956 1 0.110 284512.0
10953 10954 1 0.098 462750.4
10959 10960 1 0.135 402500.8
10960 10961 1 0.137 402500.8
10961 10962 1 0.147 319657.6
10961 10965 1 0.101 363171.2
10962 10963 1 0.110 284512.0
10962 10964 1 0.110 284512.0
10967 10968 1 0.135 402500.8
10968 10969 1 0.137 402500.8
10969 10970 1 0.147 319657.6
10969 10973 1 0.101 363171.2
10970 10971 1 0.110 284512.0
10970 10972 1 0.110 284512.0
10975 10976 1 0.135 402500.8
10976 10977 1 0.137 402500.8
10977 10978 1 0.147 319657.6
10977 10981 1 0.101 363171.2
10978 10979 1 0.110 284512.0
10978 10980 1 0.110 284512.0
10983 10984 1 0.135 402500.8
10984 10985 1 0.137 402500.8
10985 10986 1 0.147 319657.6
10985 10989 1 0.101 363171.2
10986 10987 1 0.110 284512.0
10986 10988 1 0.110 284512.0
10991 10992 1 0.135 402500.8
10992 10993 1 0.137 402500.8
10993 10994 1 0.147 319657.6
10993 10997 1 0.101 363171.2
10994 10995 1 0.110 284512.0
10994 10996 1 0.110 284512.0
10999 11000 1 0.135 402500.8
11000 11001 1 0.137 402500.8
11001 11002 1 0.147 319657.6
11001 11005 1 0.101 363171.2
11002 11003 1 0.110 284512.0
11002 11004 1 0.110 284512.0
11007 11008 1 0.135 402500.8
11008 11009 1 0.137 402500.8
11009 11010 1 0.147 319657.6
11009 11014 1 0.101 363171.2
11010 11011 1 0.143 267776.0
11010 11012 1 0.110 284512.0
11010 11013 1 0.110 284512.0
11016 11017 1 0.135 402500.8
11017 11018 1 0.137 402500.8
11018 11019 1 0.147 319657.6
11018 11022 1 0.101 363171.2
11019 11020 1 0.110 284512.0
11019 11021 1 0.110 284512.0
11024 11025 1 0.135 402500.8
11025 11026 1 0.137 402500.8
11026 11027 1 0.147 319657.6
11026 11031 1 0.101 363171.2
11027 11028 1 0.143 267776.0
11027 11029 1 0.110 284512.0
11027 11030 1 0.110 284512.0
11033 11034 1 0.135 402500.8
11034 11035 1 0.137 402500.8
11035 11036 1 0.147 319657.6
11035 11039 1 0.101 363171.2
11036 11037 1 0.110 284512.0
11036 11038 1 0.110 284512.0
11041 11042 1 0.135 402500.8
11042 11043 1 0.137 402500.8
11043 11044 1 0.147 319657.6
11043 11047 1 0.101 363171.2
11044 11045 1 0.110 284512.0
11044 11046 1 0.110 284512.0
11049 11050 1 0.135 402500.8
11050 11051 1 0.137 402500.8
11051 11052 1 0.147 319657.6
11051 11055 1 0.101 363171.2
11052 11053 1 0.110 284512.0
11052 11054 1 0.110 284512.0
11057 11058 1 0.135 402500.8
11058 11059 1 0.137 402500.8
11059 11060 1 0.147 319657.6
11059 11063 1 0.101 363171.2
11060 11061 1 0.110 284512.0
11060 11062 1 0.110 284512.0
11065 11066 1 0.135 402500.8
11066 11067 1 0.137 402500.8
11067 11068 1 0.147 319657.6
11067 11071 1 0.101 363171.2
11068 11069 1 0.110 284512.0
11068 11070 1 0.110 284512.0
11073 11074 1 0.135 402500.8
11074 11075 1 0.137 402500.8
11075 11076 1 0.147 319657.6
11075 11079 1 0.101 363171.2
11076 11077 1 0.110 284512.0
11076 11078 1 0.110 284512.0
11081 11082 1 0.135 402500.8
11082 11083 1 0.137 402500.8
11083 11084 1 0.147 319657.6
11083 11087 1 0.101 363171.2
11084 11085 1 0.110 284512.0
11084 11086 1 0.110 284512.0
11089 11090 1 0.135 402500.8
11090 11091 1 0.137 402500.8
11091 11092 1 0.147 319657.6
11091 11095 1 0.101 363171.2
11092 11093 1 0.110 284512.0
11092 11094 1 0.110 284512.0
11097 11098 1 0.135 402500.8
11098 11099 1 0.137 402500.8
11099 11100 1 0.147 319657.6
11099 11103 1 0.101 363171.2
11100 11101 1 0.110 284512.0
11100 11102 1 0.110 284512.0
11105 11106 1 0.135 402500.8
11106 11107 1 0.137 402500.8
11107 11108 1 0.147 319657.6
11107 11111 1 0.101 363171.2
11108 11109 1 0.110 284512.0
11108 11110 1 0.110 284512.0
11113 11114 1 0.135 402500.8
11114 11115 1 0.137 402500.8
11115 11116 1 0.147 319657.6
11115 11119 1 0.101 363171.2
11116 11117 1 0.110 284512.0
11116 11118 1 0.110 284512.0
11121 11122 1 0.135 402500.8
11122 11123 1 0.137 402500.8
11123 11124 1 0.147 319657.6
11123 11127 1 0.101 363171.2
11124 11125 1 0.110 284512.0
11124 11126 1 0.110 284512.0
11129 11130 1 0.135 402500.8
11130 11131 1 0.137 402500.8
11131 11132 1 0.147 319657.6
11131 11136 1 0.101 363171.2
11132 11133 1 0.143 267776.0
11132 11134 1 0.110 284512.0
11132 11135 1 0.110 284512.0
11138 11139 1 0.135 402500.8
11139 11140 1 0.137 402500.8
11140 11141 1 0.147 319657.6
11140 11144 1 0.101 363171.2
11141 11142 1 0.110 284512.0
11141 11143 1 0.110 284512.0
11146 11147 1 0.135 402500.8
11147 11148 1 0.137 402500.8
11148 11149 1 0.147 319657.6
11148 11153 1 0.101 363171.2
11149 11150 1 0.143 267776.0
11149 11151 1 0.110 284512.0
11149 11152 1 0.110 284512.0
11155 11156 1 0.135 402500.8
11156 11157 1 0.137 402500.8
11157 11158 1 0.147 319657.6
11157 11161 1 0.101 363171.2
11158 11159 1 0.110 284512.0
11158 11160 1 0.110 284512.0
11163 11164 1 0.135 402500.8
11164 11165 1 0.137 402500.8
11165 11166 1 0.147 319657.6
11165 11169 1 0.101 363171.2
11166 11167 1 0.110 284512.0
11166 11168 1 0.110 284512.0
11171 11172 1 0.135 402500.8
11172 11173 1 0.137 402500.8
11173 11174 1 0.147 319657.6
11173 11179 1 0.101 363171.2
11174 11175 1 0.143 267776.0
11174 11177 1 0.110 284512.0
11174 11178 1 0.110 284512.0
11175 11176 1 0.098 462750.4
11181 11182 1 0.135 402500.8
11182 11183 1 0.137 402500.8
11183 11184 1 0.147 319657.6
11183 11187 1 0.101 363171.2
11184 11185 1 0.110 284512.0
11184 11186 1 0.110 284512.0
11189 11190 1 0.135 402500.8
11190 11191 1 0.137 402500.8
11191 11192 1 0.147 319657.6
11191 11195 1 0.101 363171.2
11192 11193 1 0.110 284512.0
11192 11194 1 0.110 284512.0
11197 11198 1 0.135 402500.8
11198 11199 1 0.137 402500.8
11199 11200 1 0.147 319657.6
11199 11205 1 0.101 363171.2
11200 11201 1 0.143 267776.0
11200 11203 1 0.110 284512.0
11200 11204 1 0.110 284512.0
11201 11202 1 0.098 462750.4
11207 11208 1 0.135 402500.8
11208 11209 1 0.137 402500.8
11209 11210 1 0.147 319657.6
11209 11215 1 0.101 363171.2
11210 11211 1 0.143 267776.0
11210 11213 1 0.110 284512.0
11210 11214 1 0.110 284512.0
11211 11212 1 0.097 462750.4
11217 11218 1 0.135 402500.8
11218 11219 1 0.137 402500.8
11219 11220 1 0.147 319657.6
11219 11223 1 0.101 363171.2
11220 11221 1 0.110 284512.0
11220 11222 1 0.110 284512.0
11225 11226 1 0.135 402500.8
11226 11227 1 0.137 402500.8
11227 11228 1 0.147 319657.6
11227 11232 1 0.101 363171.2
11228 11229 1 0.143 267776.0
11228 11230 1 0.110 284512.0
11228 11231 1 0.110 284512.0
11234 11235 1 0.135 402500.8
11235 11236 1 0.137 402500.8
11236 11237 1 0.147 319657.6
11236 11242 1 0.101 363171.2
11237 11238 1 0.143 267776.0
11237 11240 1 0.110 284512.0
11237 11241 1 0.110 284512.0
11238 11239 1 0.097 462750.4
11244 11245 1 0.135 402500.8
11245 11246 1 0.137 402500.8
11246 11247 1 0.147 319657.6
11246 11250 1 0.101 363171.2
11247 11248 1 0.110 284512.0
11247 11249 1 0.110 284512.0
11252 11253 1 0.135 402500.8
11253 11254 1 0.137 402500.8
11254 11255 1 0.147 319657.6
11254 11258 1 0.101 363171.2
11255 11256 1 0.110 284512.0
11255 11257 1 0.110 284512.0
11260 11261 1 0.135 402500.8
11261 11262 1 0.137 402500.8
11262 11263 1 0.147 319657.6
11262 11266 1 0.101 363171.2
11263 11264 1 0.110 284512.0
11263 11265 1 0.110 284512.0
11268 11269 1 0.135 402500.8
11269 11270 1 0.137 402500.8
11270 11271 1 0.147 319657.6
11270 11274 1 0.101 363171.2
11271 11272 1 0.110 284512.0
11271 11273 1 0.110 284512.0
11276 11277 1 0.135 402500.8
11277 11278 1 0.137 402500.8
11278 11279 1 0.147 319657.6
11278 11283 1 0.101 363171.2
11279 11280 1 0.143 267776.0
11279 11281 1 0.110 284512.0
11279 11282 1 0.110 284512.0
11285 11286 1 0.135 402500.8
11286 11287 1 0.137 402500.8
11287 11288 1 0.147 319657.6
11287 11291 1 0.101 363171.2
11288 11289 1 0.110 284512.0
11288 11290 1 0.110 284512.0
11293 11294 1 0.135 402500.8
11294 11295 1 0.137 402500.8
11295 11296 1 0.147 319657.6
11295 11299 1 0.101 363171.2
11296 11297 1 0.110 284512.0
11296 11298 1 0.110 284512.0
11301 11302 1 0.135 402500.8
11302 11303 1 0.137 402500.8
11303 11304 1 0.147 319657.6
11303 11307 1 0.101 363171.2
11304 11305 1 0.110 284512.0
11304 11306 1 0.110 284512.0
11309 11310 1 0.135 402500.8
11310 11311 1 0.137 402500.8
11311 11312 1 0.147 319657.6
11311 11315 1 0.101 363171.2
11312 11313 1 0.110 284512.0
11312 11314 1 0.110 284512.0
11317 11318 1 0.135 402500.8
11318 11319 1 0.137 402500.8
11319 11320 1 0.147 319657.6
11319 11323 1 0.101 363171.2
11320 11321 1 0.110 284512.0
11320 11322 1 0.110 284512.0
11325 11326 1 0.135 402500.8
11326 11327 1 0.137 402500.8
11327 11328 1 0.147 319657.6
11327 11331 1 0.101 363171.2
11328 11329 1 0.110 284512.0
11328 11330 1 0.110 284512.0
11333 11334 1 0.135 402500.8
11334 11335 1 0.137 402500.8
11335 11336 1 0.147 319657.6
11335 11339 1 0.101 363171.2
11336 11337 1 0.110 284512.0
11336 11338 1 0.110 284512.0
11341 11342 1 0.135 402500.8
11342 11343 1 0.137 402500.8
11343 11344 1 0.147 319657.6
11343 11347 1 0.101 363171.2
11344 11345 1 0.110 284512.0
11344 11346 1 0.110 284512.0
11349 11350 1 0.135 402500.8
11350 11351 1 0.137 402500.8
11351 11352 1 0.147 319657.6
11351 11355 1 0.101 363171.2
11352 11353 1 0.110 284512.0
11352 11354 1 0.110 284512.0
11357 11358 1 0.135 402500.8
11358 11359 1 0.137 402500.8
11359 11360 1 0.147 319657.6
11359 11363 1 0.101 363171.2
11360 11361 1 0.110 284512.0
11360 11362 1 0.110 284512.0
11365 11366 1 0.135 402500.8
11366 11367 1 0.137 402500.8
11367 11368 1 0.147 319657.6
11367 11371 1 0.101 363171.2
11368 11369 1 0.110 284512.0
11368 11370 1 0.110 284512.0
11373 11374 1 0.135 402500.8
11374 11375 1 0.137 402500.8
11375 11376 1 0.147 319657.6
11375 11379 1 0.101 363171.2
11376 11377 1 0.110 284512.0
11376 11378 1 0.110 284512.0
11381 11382 1 0.135 402500.8
11382 11383 1 0.137 402500.8
11383 11384 1 0.147 319657.6
11383 11387 1 0.101 363171.2
11384 11385 1 0.110 284512.0
11384 11386 1 0.110 284512.0
11389 11390 1 0.135 402500.8
11390 11391 1 0.137 402500.8
11391 11392 1 0.147 319657.6
11391 11395 1 0.101 363171.2
11392 11393 1 0.110 284512.0
11392 11394 1 0.110 284512.0
11397 11398 1 0.135 402500.8
11398 11399 1 0.137 402500.8
11399 11400 1 0.147 319657.6
11399 11404 1 0.101 363171.2
11400 11401 1 0.143 267776.0
11400 11402 1 0.110 284512.0
11400 11403 1 0.110 284512.0
11406 11407 1 0.135 402500.8
11407 11408 1 0.137 402500.8
11408 11409 1 0.147 319657.6
11408 11412 1 0.101 363171.2
11409 11410 1 0.110 284512.0
11409 11411 1 0.110 284512.0
11414 11415 1 0.135 402500.8
11415 11416 1 0.137 402500.8
11416 11417 1 0.147 319657.6
11416 11420 1 0.101 363171.2
11417 11418 1 0.110 284512.0
11417 11419 1 0.110 284512.0
11422 11423 1 0.135 402500.8
11423 11424 1 0.137 402500.8
11424 11425 1 0.147 319657.6
11424 11428 1 0.101 363171.2
11425 11426 1 0.110 284512.0
11425 11427 1 0.110 284512.0
11430 11431 1 0.135 402500.8
11431 11432 1 0.137 402500.8
11432 11433 1 0.147 319657.6
11432 11436 1 0.101 363171.2
11433 11434 1 0.110 284512.0
11433 11435 1 0.110 284512.0
11438 11439 1 0.135 402500.8
11439 11440 1 0.137 402500.8
11440 11441 1 0.147 319657.6
11440 11444 1 0.101 363171.2
11441 11442 1 0.110 284512.0
11441 11443 1 0.110 284512.0
11446 11447 1 0.135 402500.8
11447 11448 1 0.137 402500.8
11448 11449 1 0.147 319657.6
11448 11452 1 0.101 363171.2
11449 11450 1 0.110 284512.0
11449 11451 1 0.110 284512.0
11454 11455 1 0.135 402500.8
11455 11456 1 0.137 402500.8
11456 11457 1 0.147 319657.6
11456 11460 1 0.101 363171.2
11457 11458 1 0.110 284512.0
11457 11459 1 0.110 284512.0
11462 11463 1 0.135 402500.8
11463 11464 1 0.137 402500.8
11464 11465 1 0.147 319657.6
11464 11468 1 0.101 363171.2
11465 11466 1 0.110 284512.0
11465 11467 1 0.110 284512.0
11470 11471 1 0.135 402500.8
11471 11472 1 0.137 402500.8
11472 11473 1 0.147 319657.6
11472 11478 1 0.101 363171.2
11473 11474 1 0.143 267776.0
11473 11476 1 0.110 284512.0
11473 11477 1 0.110 284512.0
11474 11475 1 0.098 462750.4
11480 11481 1 0.135 402500.8
11481 11482 1 0.137 402500.8
11482 11483 1 0.147 319657.6
11482 11486 1 0.101 363171.2
11483 11484 1 0.110 284512.0
11483 11485 1 0.110 284512.0
11488 11489 1 0.135 402500.8
11489 11490 1 0.137 402500.8
11490 11491 1 0.147 319657.6
11490 11494 1 0.101 363171.2
11491 11492 1 0.110 284512.0
11491 11493 1 0.110 284512.0
11496 11497 1 0.135 402500.8
11497 11498 1 0.137 402500.8
11498 11499 1 0.147 319657.6
11498 11502 1 0.101 363171.2
11499 11500 1 0.110 284512.0
11499 11501 1 0.110 284512.0
11504 11505 1 0.135 402500.8
11505 11506 1 0.137 402500.8
11506 11507 1 0.147 319657.6
11506 11510 1 0.101 363171.2
11507 11508 1 0.110 284512.0
11507 11509 1 0.110 284512.0
11512 11513 1 0.135 402500.8
11513 11514 1 0.137 402500.8
11514 11515 1 0.147 319657.6
11514 11518 1 0.101 363171.2
11515 11516 1 0.110 284512.0
11515 11517 1 0.110 284512.0
11520 11521 1 0.135 402500.8
11521 11522 1 0.137 402500.8
11522 11523 1 0.147 319657.6
11522 11528 1 0.101 363171.2
11523 11524 1 0.143 267776.0
11523 11526 1 0.110 284512.0
11523 11527 1 0.110 284512.0
11524 11525 1 0.098 462750.4
11530 11531 1 0.135 402500.8
11531 11532 1 0.137 402500.8
11532 11533 1 0.147 319657.6
11532 11538 1 0.101 363171.2
11533 11534 1 0.143 267776.0
11533 11536 1 0.110 284512.0
11533 11537 1 0.110 284512.0
11534 11535 1 0.097 462750.4
11540 11541 1 0.135 402500.8
11541 11542 1 0.137 402500.8
11542 11543 1 0.147 319657.6
11542 11546 1 0.101 363171.2
11543 11544 1 0.110 284512.0
11543 11545 1 0.110 284512.0
11548 11549 1 0.135 402500.8
11549 11550 1 0.137 402500.8
11550 11551 1 0.147 319657.6
11550 11554 1 0.101 363171.2
11551 11552 1 0.110 284512.0
11551 11553 1 0.110 284512.0
11556 11557 1 0.135 402500.8
11557 11558 1 0.137 402500.8
11558 11559 1 0.147 319657.6
11558 11563 1 0.101 363171.2
11559 11560 1 0.143 267776.0
11559 11561 1 0.110 284512.0
11559 11562 1 0.110 284512.0
11565 11566 1 0.135 402500.8
11566 11567 1 0.137 402500.8
11567 11568 1 0.147 319657.6
11567 11571 1 0.101 363171.2
11568 11569 1 0.110 284512.0
11568 11570 1 0.110 284512.0
11573 11574 1 0.135 402500.8
11574 11575 1 0.137 402500.8
11575 11576 1 0.147 319657.6
11575 11579 1 0.101 363171.2
11576 11577 1 0.110 284512.0
11576 11578 1 0.110 284512.0
11581 11582 1 0.135 402500.8
11582 11583 1 0.137 402500.8
11583 11584 1 0.147 319657.6
11583 11587 1 0.101 363171.2
11584 11585 1 0.110 284512.0
11584 11586 1 0.110 284512.0
11589 11590 1 0.135 402500.8
11590 11591 1 0.137 402500.8
11591 11592 1 0.147 319657.6
11591 11595 1 0.101 363171.2
11592 11593 1 0.110 284512.0
11592 11594 1 0.110 284512.0
11597 11598 1 0.135 402500.8
11598 11599 1 0.137 402500.8
11599 11600 1 0.147 319657.6
11599 11605 1 0.101 363171.2
11600 11601 1 0.143 267776.0
11600 11603 1 0.110 284512.0
11600 11604 1 0.110 284512.0
11601 11602 1 0.098 462750.4
11607 11608 1 0.135 402500.8
11608 11609 1 0.137 402500.8
11609 11610 1 0.147 319657.6
11609 11613 1 0.101 363171.2
11610 11611 1 0.110 284512.0
11610 11612 1 0.110 284512.0
11615 11616 1 0.135 402500.8
11616 11617 1 0.137 402500.8
11617 11618 1 0.147 319657.6
11617 11621 1 0.101 363171.2
11618 11619 1 0.110 284512.0
11618 11620 1 0.110 284512.0
11623 11624 1 0.135 402500.8
11624 11625 1 0.137 402500.8
11625 11626 1 0.147 319657.6
11625 11629 1 0.101 363171.2
11626 11627 1 0.110 284512.0
11626 11628 1 0.110 284512.0
11631 11632 1 0.135 402500.8
11632 11633 1 0.137 402500.8
11633 11634 1 0.147 319657.6
11633 11637 1 0.101 363171.2
11634 11635 1 0.110 284512.0
11634 11636 1 0.110 284512.0
11639 11640 1 0.135 402500.8
11640 11641 1 0.137 402500.8
11641 11642 1 0.147 319657.6
11641 11645 1 0.101 363171.2
11642 11643 1 0.110 284512.0
11642 11644 1 0.110 284512.0
11647 11648 1 0.135 402500.8
11648 11649 1 0.137 402500.8
11649 11650 1 0.147 319657.6
11649 11653 1 0.101 363171.2
11650 11651 1 0.110 284512.0
11650 11652 1 0.110 284512.0
11655 11656 1 0.135 402500.8
11656 11657 1 0.137 402500.8
11657 11658 1 0.147 319657.6
11657 11661 1 0.101 363171.2
11658 11659 1 0.110 284512.0
11658 11660 1 0.110 284512.0
11663 11664 1 0.135 402500.8
11664 11665 1 0.137 402500.8
11665 11666 1 0.147 319657.6
11665 11671 1 0.101 363171.2
11666 11667 1 0.143 267776.0
11666 11669 1 0.110 284512.0
11666 11670 1 0.110 284512.0
11667 11668 1 0.098 462750.4
11673 11674 1 0.135 402500.8
11674 11675 1 0.137 402500.8
11675 11676 1 0.147 319657.6
11675 11681 1 0.101 363171.2
11676 11677 1 0.143 267776.0
11676 11679 1 0.110 284512.0
11676 11680 1 0.110 284512.0
11677 11678 1 0.098 462750.4
11683 11684 1 0.135 402500.8
11684 11685 1 0.137 402500.8
11685 11686 1 0.147 319657.6
11685 11689 1 0.101 363171.2
11686 11687 1 0.110 284512.0
11686 11688 1 0.110 284512.0
11691 11692 1 0.135 402500.8
11692 11693 1 0.137 402500.8
11693 11694 1 0.147 319657.6
11693 11697 1 0.101 363171.2
11694 11695 1 0.110 284512.0
11694 11696 1 0.110 284512.0
11699 11700 1 0.135 402500.8
11700 11701 1 0.137 402500.8
11701 11702 1 0.147 319657.6
11701 11705 1 0.101 363171.2
11702 11703 1 0.110 284512.0
11702 11704 1 0.110 284512.0
11707 11708 1 0.135 402500.8
11708 11709 1 0.137 402500.8
11709 11710 1 0.147 319657.6
11709 11714 1 0.101 363171.2
11710 11711 1 0.143 267776.0
11710 11712 1 0.110 284512.0
11710 11713 1 0.110 284512.0
11716 11717 1 0.135 402500.8
11717 11718 1 0.137 402500.8
11718 11719 1 0.147 319657.6
11718 11722 1 0.101 363171.2
11719 11720 1 0.110 284512.0
11719 11721 1 0.110 284512.0
11724 11725 1 0.135 402500.8
11725 11726 1 0.137 402500.8
11726 11727 1 0.147 319657.6
11726 11730 1 0.101 363171.2
11727 11728 1 0.110 284512.0
11727 11729 1 0.110 284512.0
11732 11733 1 0.135 402500.8
11733 11734 1 0.137 402500.8
11734 11735 1 0.147 319657.6
11734 11738 1 0.101 363171.2
11735 11736 1 0.110 284512.0
11735 11737 1 0.110 284512.0
11740 11741 1 0.135 402500.8
11741 11742 1 0.137 402500.8
11742 11743 1 0.147 319657.6
11742 11746 1 0.101 363171.2
11743 11744 1 0.110 284512.0
11743 11745 1 0.110 284512.0
11748 11749 1 0.135 402500.8
11749 11750 1 0.137 402500.8
11750 11751 1 0.147 319657.6
11750 11754 1 0.101 363171.2
11751 11752 1 0.110 284512.0
11751 11753 1 0.110 284512.0
11756 11757 1 0.135 402500.8
11757 11758 1 0.137 402500.8
11758 11759 1 0.147 319657.6
11758 11762 1 0.101 363171.2
11759 11760 1 0.110 284512.0
11759 11761 1 0.110 284512.0
11764 11765 1 0.135 402500.8
11765 11766 1 0.137 402500.8
11766 11767 1 0.147 319657.6
11766 11770 1 0.101 363171.2
11767 11768 1 0.110 284512.0
11767 11769 1 0.110 284512.0
11772 11773 1 0.135 402500.8
11773 11774 1 0.137 402500.8
11774 11775 1 0.147 319657.6
11774 11778 1 0.101 363171.2
11775 11776 1 0.110 284512.0
11775 11777 1 0.110 284512.0
11780 11781 1 0.135 402500.8
11781 11782 1 0.137 402500.8
11782 11783 1 0.147 319657.6
11782 11786 1 0.101 363171.2
11783 11784 1 0.110 284512.0
11783 11785 1 0.110 284512.0
11788 11789 1 0.135 402500.8
11789 11790 1 0.137 402500.8
11790 11791 1 0.147 319657.6
11790 11795 1 0.101 363171.2
11791 11792 1 0.143 267776.0
11791 11793 1 0.110 284512.0
11791 11794 1 0.110 284512.0
11797 11798 1 0.135 402500.8
11798 11799 1 0.137 402500.8
11799 11800 1 0.147 319657.6
11799 11803 1 0.101 363171.2
11800 11801 1 0.110 284512.0
11800 11802 1 0.110 284512.0
11805 11806 1 0.135 402500.8
11806 11807 1 0.137 402500.8
11807 11808 1 0.147 319657.6
11807 11811 1 0.101 363171.2
11808 11809 1 0.110 284512.0
11808 11810 1 0.110 284512.0
11813 11814 1 0.135 402500.8
11814 11815 1 0.137 402500.8
11815 11816 1 0.147 319657.6
11815 11819 1 0.101 363171.2
11816 11817 1 0.110 284512.0
11816 11818 1 0.110 284512.0
11821 11822 1 0.135 402500.8
11822 11823 1 0.137 402500.8
11823 11824 1 0.147 319657.6
11823 11827 1 0.101 363171.2
11824 11825 1 0.110 284512.0
11824 11826 1 0.110 284512.0
11829 11830 1 0.135 402500.8
11830 11831 1 0.137 402500.8
11831 11832 1 0.147 319657.6
11831 11836 1 0.101 363171.2
11832 11833 1 0.143 267776.0
11832 11834 1 0.110 284512.0
11832 11835 1 0.110 284512.0
11838 11839 1 0.135 402500.8
11839 11840 1 0.137 402500.8
11840 11841 1 0.147 319657.6
11840 11844 1 0.101 363171.2
11841 11842 1 0.110 284512.0
11841 11843 1 0.110 284512.0
11846 11847 1 0.135 402500.8
11847 11848 1 0.137 402500.8
11848 11849 1 0.147 319657.6
11848 11852 1 0.101 363171.2
11849 11850 1 0.110 284512.0
11849 11851 1 0.110 284512.0
11854 11855 1 0.135 402500.8
11855 11856 1 0.137 402500.8
11856 11857 1 0.147 319657.6
11856 11861 1 0.101 363171.2
11857 11858 1 0.143 267776.0
11857 11859 1 0.110 284512.0
11857 11860 1 0.110 284512.0
11863 11864 1 0.135 402500.8
11864 11865 1 0.137 402500.8
11865 11866 1 0.147 319657.6
11865 11869 1 0.101 363171.2
11866 11867 1 0.110 284512.0
11866 11868 1 0.110 284512.0
11871 11872 1 0.135 402500.8
11872 11873 1 0.137 402500.8
11873 11874 1 0.147 319657.6
11873 11877 1 0.101 363171.2
11874 11875 1 0.110 284512.0
11874 11876 1 0.110 284512.0
11879 11880 1 0.135 402500.8
11880 11881 1 0.137 402500.8
11881 11882 1 0.147 319657.6
11881 11885 1 0.101 363171.2
11882 11883 1 0.110 284512.0
11882 11884 1 0.110 284512.0
11887 11888 1 0.135 402500.8
11888 11889 1 0.137 402500.8
11889 11890 1 0.147 319657.6
11889 11893 1 0.101 363171.2
11890 11891 1 0.110 284512.0
11890 11892 1 0.110 284512.0
11895 11896 1 0.135 402500.8
11896 11897 1 0.137 402500.8
11897 11898 1 0.147 319657.6
11897 11901 1 0.101 363171.2
11898 11899 1 0.110 284512.0
11898 11900 1 0.110 284512.0
11903 11904 1 0.135 402500.8
11904 11905 1 0.137 402500.8
11905 11906 1 0.147 319657.6
11905 11910 1 0.101 363171.2
11906 11907 1 0.143 267776.0
11906 11908 1 0.110 284512.0
11906 11909 1 0.110 284512.0
11912 11913 1 0.135 402500.8
11913 11914 1 0.137 402500.8
11914 11915 1 0.147 319657.6
11914 11918 1 0.101 363171.2
11915 11916 1 0.110 284512.0
11915 11917 1 0.110 284512.0
11920 11921 1 0.135 402500.8
11921 11922 1 0.137 402500.8
11922 11923 1 0.147 319657.6
11922 11926 1 0.101 363171.2
11923 11924 1 0.110 284512.0
11923 11925 1 0.110 284512.0
11928 11929 1 0.135 402500.8
11929 11930 1 0.137 402500.8
11930 11931 1 0.147 319657.6
11930 11935 1 0.101 363171.2
11931 11932 1 0.143 267776.0
11931 11933 1 0.110 284512.0
11931 11934 1 0.110 284512.0
11937 11938 1 0.135 402500.8
11938 11939 1 0.137 402500.8
11939 11940 1 0.147 319657.6
11939 11943 1 0.101 363171.2
11940 11941 1 0.110 284512.0
11940 11942 1 0.110 284512.0
11945 11946 1 0.135 402500.8
11946 11947 1 0.137 402500.8
11947 11948 1 0.147 319657.6
11947 11951 1 0.101 363171.2
11948 11949 1 0.110 284512.0
11948 11950 1 0.110 284512.0
11953 11954 1 0.135 402500.8
11954 11955 1 0.137 402500.8
11955 11956 1 0.147 319657.6
11955 11959 1 0.101 363171.2
11956 11957 1 0.110 284512.0
11956 11958 1 0.110 284512.0
11961 11962 1 0.135 402500.8
11962 11963 1 0.137 402500.8
11963 11964 1 0.147 319657.6
11963 11967 1 0.101 363171.2
11964 11965 1 0.110 284512.0
11964 11966 1 0.110 284512.0
11969 11970 1 0.135 402500.8
11970 11971 1 0.137 402500.8
11971 11972 1 0.147 319657.6
11971 11976 1 0.101 363171.2
11972 11973 1 0.143 267776.0
11972 11974 1 0.110 284512.0
11972 11975 1 0.110 284512.0
11978 11979 1 0.135 402500.8
11979 11980 1 0.137 402500.8
11980 11981 1 0.147 319657.6
11980 11984 1 0.101 363171.2
11981 11982 1 0.110 284512.0
11981 11983 1 0.110 284512.0
11986 11987 1 0.135 402500.8
11987 11988 1 0.137 402500.8
11988 11989 1 0.147 319657.6
11988 11994 1 0.101 363171.2
11989 11990 1 0.143 267776.0
11989 11992 1 0.110 284512.0
11989 11993 1 0.110 284512.0
11990 11991 1 0.098 462750.4
11996 11997 1 0.135 402500.8
11997 11998 1 0.137 402500.8
11998 11999 1 0.147 319657.6
11998 12002 1 0.101 363171.2
11999 12000 1 0.110 284512.0
11999 12001 1 0.110 284512.0
12004 12005 1 0.135 402500.8
12005 12006 1 0.137 402500.8
12006 12007 1 0.147 319657.6
12006 12012 1 0.101 363171.2
12007 12008 1 0.143 267776.0
12007 12010 1 0.110 284512.0
12007 12011 1 0.110 284512.0
12008 12009 1 0.097 462750.4
12014 12015 1 0.135 402500.8
12015 12016 1 0.137 402500.8
12016 12017 1 0.147 319657.6
12016 12020 1 0.101 363171.2
12017 12018 1 0.110 284512.0
12017 12019 1 0.110 284512.0
12022 12023 1 0.135 402500.8
12023 12024 1 0.137 402500.8
12024 12025 1 0.147 319657.6
12024 12028 1 0.101 363171.2
12025 12026 1 0.110 284512.0
12025 12027 1 0.110 284512.0
12030 12031 1 0.135 402500.8
12031 12032 1 0.137 402500.8
12032 12033 1 0.147 319657.6
12032 12036 1 0.101 363171.2
12033 12034 1 0.110 284512.0
12033 12035 1 0.110 284512.0
12038 12039 1 0.135 402500.8
12039 12040 1 0.137 402500.8
12040 12041 1 0.147 319657.6
12040 12044 1 0.101 363171.2
12041 12042 1 0.110 284512.0
12041 12043 1 0.110 284512.0
12046 12047 1 0.135 402500.8
12047 12048 1 0.137 402500.8
12048 12049 1 0.147 319657.6
12048 12052 1 0.101 363171.2
12049 12050 1 0.110 284512.0
12049 12051 1 0.110 284512.0
12054 12055 1 0.135 402500.8
12055 12056 1 0.137 402500.8
12056 12057 1 0.147 319657.6
12056 12060 1 0.101 363171.2
12057 12058 1 0.110 284512.0
12057 12059 1 0.110 284512.0
12062 12063 1 0.135 402500.8
12063 12064 1 0.137 402500.8
12064 12065 1 0.147 319657.6
12064 12070 1 0.101 363171.2
12065 12066 1 0.143 267776.0
12065 12068 1 0.110 284512.0
12065 12069 1 0.110 284512.0
12066 12067 1 0.098 462750.4
12072 12073 1 0.135 402500.8
12073 12074 1 0.137 402500.8
12074 12075 1 0.147 319657.6
12074 12078 1 0.101 363171.2
12075 12076 1 0.110 284512.0
12075 12077 1 0.110 284512.0
12080 12081 1 0.135 402500.8
12081 12082 1 0.137 402500.8
12082 12083 1 0.147 319657.6
12082 12086 1 0.101 363171.2
12083 12084 1 0.110 284512.0
12083 12085 1 0.110 284512.0
12088 12089 1 0.135 402500.8
12089 12090 1 0.137 402500.8
12090 12091 1 0.147 319657.6
12090 12094 1 0.101 363171.2
12091 12092 1 0.110 284512.0
12091 12093 1 0.110 284512.0
12096 12097 1 0.135 402500.8
12097 12098 1 0.137 402500.8
12098 12099 1 0.147 319657.6
12098 12102 1 0.101 363171.2
12099 12100 1 0.110 284512.0
12099 12101 1 0.110 284512.0
12104 12105 1 0.135 402500.8
12105 12106 1 0.137 402500.8
12106 12107 1 0.147 319657.6
12106 12110 1 0.101 363171.2
12107 12108 1 0.110 284512.0
12107 12109 1 0.110 284512.0
12112 12113 1 0.135 402500.8
12113 12114 1 0.137 402500.8
12114 12115 1 0.147 319657.6
12114 12118 1 0.101 363171.2
12115 12116 1 0.110 284512.0
12115 12117 1 0.110 284512.0
12120 12121 1 0.135 402500.8
12121 12122 1 0.137 402500.8
12122 12123 1 0.147 319657.6
12122 12126 1 0.101 363171.2
12123 12124 1 0.110 284512.0
12123 12125 1 0.110 284512.0
12128 12129 1 0.135 402500.8
12129 12130 1 0.137 402500.8
12130 12131 1 0.147 319657.6
12130 12134 1 0.101 363171.2
12131 12132 1 0.110 284512.0
12131 12133 1 0.110 284512.0
12136 12137 1 0.135 402500.8
12137 12138 1 0.137 402500.8
12138 12139 1 0.147 319657.6
12138 12142 1 0.101 363171.2
12139 12140 1 0.110 284512.0
12139 12141 1 0.110 284512.0
12144 12145 1 0.135 402500.8
12145 12146 1 0.137 402500.8
12146 12147 1 0.147 319657.6
12146 12150 1 0.101 363171.2
12147 12148 1 0.110 284512.0
12147 12149 1 0.110 284512.0
12152 12153 1 0.135 402500.8
12153 12154 1 0.137 402500.8
12154 12155 1 0.147 319657.6
12154 12158 1 0.101 363171.2
12155 12156 1 0.110 284512.0
12155 12157 1 0.110 284512.0
12160 12161 1 0.135 402500.8
12161 12162 1 0.137 402500.8
12162 12163 1 0.147 319657.6
12162 12166 1 0.101 363171.2
12163 12164 1 0.110 284512.0
12163 12165 1 0.110 284512.0
12168 12169 1 0.135 402500.8
12169 12170 1 0.137 402500.8
12170 12171 1 0.147 319657.6
12170 12174 1 0.101 363171.2
12171 12172 1 0.110 284512.0
12171 12173 1 0.110 284512.0
12176 12177 1 0.135 402500.8
12177 12178 1 0.137 402500.8
12178 12179 1 0.147 319657.6
12178 12182 1 0.101 363171.2
12179 12180 1 0.110 284512.0
12179 12181 1 0.110 284512.0
12184 12185 1 0.135 402500.8
12185 12186 1 0.137 402500.8
12186 12187 1 0.147 319657.6
12186 12192 1 0.101 363171.2
12187 12188 1 0.143 267776.0
12187 12190 1 0.110 284512.0
12187 12191 1 0.110 284512.0
12188 12189 1 0.098 462750.4
12194 12195 1 0.135 402500.8
12195 12196 1 0.137 402500.8
12196 12197 1 0.147 319657.6
12196 12201 1 0.101 363171.2
12197 12198 1 0.143 267776.0
12197 12199 1 0.110 284512.0
12197 12200 1 0.110 284512.0
12203 12204 1 0.135 402500.8
12204 12205 1 0.137 402500.8
12205 12206 1 0.147 319657.6
12205 12211 1 0.101 363171.2
12206 12207 1 0.143 267776.0
12206 12209 1 0.110 284512.0
12206 12210 1 0.110 284512.0
12207 12208 1 0.097 462750.4
12213 12214 1 0.135 402500.8
12214 12215 1 0.137 402500.8
12215 12216 1 0.147 319657.6
12215 12219 1 0.101 363171.2
12216 12217 1 0.110 284512.0
12216 12218 1 0.110 284512.0
12221 12222 1 0.135 402500.8
12222 12223 1 0.137 402500.8
12223 12224 1 0.147 319657.6
12223 12227 1 0.101 363171.2
12224 12225 1 0.110 284512.0
12224 12226 1 0.110 284512.0
12229 12230 1 0.135 402500.8
12230 12231 1 0.137 402500.8
12231 12232 1 0.147 319657.6
12231 12235 1 0.101 363171.2
12232 12233 1 0.110 284512.0
12232 12234 1 0.110 284512.0
12237 12238 1 0.135 402500.8
12238 12239 1 0.137 402500.8
12239 12240 1 0.147 319657.6
12239 12245 1 0.101 363171.2
12240 12241 1 0.143 267776.0
12240 12243 1 0.110 284512.0
12240 12244 1 0.110 284512.0
12241 12242 1 0.098 462750.4
12247 12248 1 0.135 402500.8
12248 12249 1 0.137 402500.8
12249 12250 1 0.147 319657.6
12249 12253 1 0.101 363171.2
12250 12251 1 0.110 284512.0
12250 12252 1 0.110 284512.0
12255 12256 1 0.135 402500.8
12256 12257 1 0.137 402500.8
12257 12258 1 0.147 319657.6
12257 12261 1 0.101 363171.2
12258 12259 1 0.110 284512.0
12258 12260 1 0.110 284512.0
12263 12264 1 0.135 402500.8
12264 12265 1 0.137 402500.8
12265 12266 1 0.147 319657.6
12265 12269 1 0.101 363171.2
12266 12267 1 0.110 284512.0
12266 12268 1 0.110 284512.0
12271 12272 1 0.135 402500.8
12272 12273 1 0.137 402500.8
12273 12274 1 0.147 319657.6
12273 12277 1 0.101 363171.2
12274 12275 1 0.110 284512.0
12274 12276 1 0.110 284512.0
12279 12280 1 0.135 402500.8
12280 12281 1 0.137 402500.8
12281 12282 1 0.147 319657.6
12281 12285 1 0.101 363171.2
12282 12283 1 0.110 284512.0
12282 12284 1 0.110 284512.0
12287 12288 1 0.135 402500.8
12288 12289 1 0.137 402500.8
12289 12290 1 0.147 319657.6
12289 12293 1 0.101 363171.2
12290 12291 1 0.110 284512.0
12290 12292 1 0.110 284512.0
12295 12296 1 0.135 402500.8
12296 12297 1 0.137 402500.8
12297 12298 1 0.147 319657.6
12297 12301 1 0.101 363171.2
12298 12299 1 0.110 284512.0
12298 12300 1 0.110 284512.0
12303 12304 1 0.135 402500.8
12304 12305 1 0.137 402500.8
12305 12306 1 0.147 319657.6
12305 12309 1 0.101 363171.2
12306 12307 1 0.110 284512.0
12306 12308 1 0.110 284512.0
12311 12312 1 0.135 402500.8
12312 12313 1 0.137 402500.8
12313 12314 1 0.147 319657.6
12313 12317 1 0.101 363171.2
12314 12315 1 0.110 284512.0
12314 12316 1 0.110 284512.0
12319 12320 1 0.135 402500.8
12320 12321 1 0.137 402500.8
12321 12322 1 0.147 319657.6
12321 12325 1 0.101 363171.2
12322 12323 1 0.110 284512.0
12322 12324 1 0.110 284512.0
12327 12328 1 0.135 402500.8
12328 12329 1 0.137 402500.8
12329 12330 1 0.147 319657.6
12329 12333 1 0.101 363171.2
12330 12331 1 0.110 284512.0
12330 12332 1 0.110 284512.0
12335 12336 1 0.135 402500.8
12336 12337 1 0.137 402500.8
12337 12338 1 0.147 319657.6
12337 12341 1 0.101 363171.2
12338 12339 1 0.110 284512.0
12338 12340 1 0.110 284512.0
12343 12344 1 0.135 402500.8
12344 12345 1 0.137 402500.8
12345 12346 1 0.147 319657.6
12345 12349 1 0.101 363171.2
12346 12347 1 0.110 284512.0
12346 12348 1 0.110 284512.0
12351 12352 1 0.135 402500.8
12352 12353 1 0.137 402500.8
12353 12354 1 0.147 319657.6
12353 12357 1 0.101 363171.2
12354 12355 1 0.110 284512.0
12354 12356 1 0.110 284512.0
12359 12360 1 0.135 402500.8
12360 12361 1 0.137 402500.8
12361 12362 1 0.147 319657.6
12361 12365 1 0.101 363171.2
12362 12363 1 0.110 284512.0
12362 12364 1 0.110 284512.0
12367 12368 1 0.135 402500.8
12368 12369 1 0.137 402500.8
12369 12370 1 0.147 319657.6
12369 12373 1 0.101 363171.2
12370 12371 1 0.110 284512.0
12370 12372 1 0.110 284512.0
12375 12376 1 0.135 402500.8
12376 12377 1 0.137 402500.8
12377 12378 1 0.147 319657.6
12377 12381 1 0.101 363171.2
12378 12379 1 0.110 284512.0
12378 12380 1 0.110 284512.0
12383 12384 1 0.135 402500.8
12384 12385 1 0.137 402500.8
12385 12386 1 0.147 319657.6
12385 12389 1 0.101 363171.2
12386 12387 1 0.110 284512.0
12386 12388 1 0.110 284512.0
12391 12392 1 0.135 402500.8
12392 12393 1 0.137 402500.8
12393 12394 1 0.147 319657.6
12393 12397 1 0.101 363171.2
12394 12395 1 0.110 284512.0
12394 12396 1 0.110 284512.0
12399 12400 1 0.135 402500.8
12400 12401 1 0.137 402500.8
12401 12402 1 0.147 319657.6
12401 12405 1 0.101 363171.2
12402 12403 1 0.110 284512.0
12402 12404 1 0.110 284512.0
12407 12408 1 0.135 402500.8
12408 12409 1 0.137 402500.8
12409 12410 1 0.147 319657.6
12409 12413 1 0.101 363171.2
12410 12411 1 0.110 284512.0
12410 12412 1 0.110 284512.0
12415 12416 1 0.135 402500.8
12416 12417 1 0.137 402500.8
12417 12418 1 0.147 319657.6
12417 12423 1 0.101 363171.2
12418 12419 1 0.143 267776.0
12418 12421 1 0.110 284512.0
12418 12422 1 0.110 284512.0
12419 12420 1 0.098 462750.4
12425 12426 1 0.135 402500.8
12426 12427 1 0.137 402500.8
12427 12428 1 0.147 319657.6
12427 12431 1 0.101 363171.2
12428 12429 1 0.110 284512.0
12428 12430 1 0.110 284512.0
12433 12434 1 0.135 402500.8
12434 12435 1 0.137 402500.8
12435 12436 1 0.147 319657.6
12435 12439 1 0.101 363171.2
12436 12437 1 0.110 284512.0
12436 12438 1 0.110 284512.0
12441 12442 1 0.135 402500.8
12442 12443 1 0.137 402500.8
12443 12444 1 0.147 319657.6
12443 12447 1 0.101 363171.2
12444 12445 1 0.110 284512.0
12444 12446 1 0.110 284512.0
12449 12450 1 0.135 402500.8
12450 12451 1 0.137 402500.8
12451 12452 1 0.147 319657.6
12451 12455 1 0.101 363171.2
12452 12453 1 0.110 284512.0
12452 12454 1 0.110 284512.0
12457 12458 1 0.135 402500.8
12458 12459 1 0.137 402500.8
12459 12460 1 0.147 319657.6
12459 12463 1 0.101 363171.2
12460 12461 1 0.110 284512.0
12460 12462 1 0.110 284512.0
12465 12466 1 0.135 402500.8
12466 12467 1 0.137 402500.8
12467 12468 1 0.147 319657.6
12467 12471 1 0.101 363171.2
12468 12469 1 0.110 284512.0
12468 12470 1 0.110 284512.0
12473 12474 1 0.135 402500.8
12474 12475 1 0.137 402500.8
12475 12476 1 0.147 319657.6
12475 12479 1 0.101 363171.2
12476 12477 1 0.110 284512.0
12476 12478 1 0.110 284512.0
12481 12482 1 0.135 402500.8
12482 12483 1 0.137 402500.8
12483 12484 1 0.147 319657.6
12483 12487 1 0.101 363171.2
12484 12485 1 0.110 284512.0
12484 12486 1 0.110 284512.0
12489 12490 1 0.135 402500.8
12490 12491 1 0.137 402500.8
12491 12492 1 0.147 319657.6
12491 12497 1 0.101 363171.2
12492 12493 1 0.143 267776.0
12492 12495 1 0.110 284512.0
12492 12496 1 0.110 284512.0
12493 12494 1 0.098 462750.4
12499 12500 1 0.135 402500.8
12500 12501 1 0.137 402500.8
12501 12502 1 0.147 319657.6
12501 12505 1 0.101 363171.2
12502 12503 1 0.110 284512.0
12502 12504 1 0.110 284512.0
12507 12508 1 0.135 402500.8
12508 12509 1 0.137 402500.8
12509 12510 1 0.147 319657.6
12509 12513 1 0.101 363171.2
12510 12511 1 0.110 284512.0
12510 12512 1 0.110 284512.0
12515 12516 1 0.135 402500.8
12516 12517 1 0.137 402500.8
12517 12518 1 0.147 319657.6
12517 12523 1 0.101 363171.2
12518 12519 1 0.143 267776.0
12518 12521 1 0.110 284512.0
12518 12522 1 0.110 284512.0
12519 12520 1 0.098 462750.4
12525 12526 1 0.135 402500.8
12526 12527 1 0.137 402500.8
12527 12528 1 0.147 319657.6
12527 12531 1 0.101 363171.2
12528 12529 1 0.110 284512.0
12528 12530 1 0.110 284512.0
12533 12534 1 0.135 402500.8
12534 12535 1 0.137 402500.8
12535 12536 1 0.147 319657.6
12535 12539 1 0.101 363171.2
12536 12537 1 0.110 284512.0
12536 12538 1 0.110 284512.0
12541 12542 1 0.135 402500.8
12542 12543 1 0.137 402500.8
12543 12544 1 0.147 319657.6
12543 12547 1 0.101 363171.2
12544 12545 1 0.110 284512.0
12544 12546 1 0.110 284512.0
12549 12550 1 0.135 402500.8
12550 12551 1 0.137 402500.8
12551 12552 1 0.147 319657.6
12551 12557 1 0.101 363171.2
12552 12553 1 0.143 267776.0
12552 12555 1 0.110 284512.0
12552 12556 1 0.110 284512.0
12553 12554 1 0.097 462750.4
12559 12560 1 0.135 402500.8
12560 12561 1 0.137 402500.8
12561 12562 1 0.147 319657.6
12561 12565 1 0.101 363171.2
12562 12563 1 0.110 284512.0
12562 12564 1 0.110 284512.0
12567 12568 1 0.135 402500.8
12568 12569 1 0.137 402500.8
12569 12570 1 0.147 319657.6
12569 12573 1 0.101 363171.2
12570 12571 1 0.110 284512.0
12570 12572 1 0.110 284512.0
12575 12576 1 0.135 402500.8
12576 12577 1 0.137 402500.8
12577 12578 1 0.147 319657.6
12577 12581 1 0.101 363171.2
12578 12579 1 0.110 284512.0
12578 12580 1 0.110 284512.0
12583 12584 1 0.135 402500.8
12584 12585 1 0.137 402500.8
12585 12586 1 0.147 319657.6
12585 12589 1 0.101 363171.2
12586 12587 1 0.110 284512.0
12586 12588 1 0.110 284512.0
12591 12592 1 0.135 402500.8
12592 12593 1 0.137 402500.8
12593 12594 1 0.147 319657.6
12593 12597 1 0.101 363171.2
12594 12595 1 0.110 284512.0
12594 12596 1 0.110 284512.0
12599 12600 1 0.135 402500.8
12600 12601 1 0.137 402500.8
12601 12602 1 0.147 319657.6
12601 12605 1 0.101 363171.2
12602 12603 1 0.110 284512.0
12602 12604 1 0.110 284512.0
12607 12608 1 0.135 402500.8
12608 12609 1 0.137 402500.8
12609 12610 1 0.147 319657.6
12609 12613 1 0.101 363171.2
12610 12611 1 0.110 284512.0
12610 12612 1 0.110 284512.0
12615 12616 1 0.135 402500.8
12616 12617 1 0.137 402500.8
12617 12618 1 0.147 319657.6
12617 12621 1 0.101 363171.2
12618 12619 1 0.110 284512.0
12618 12620 1 0.110 284512.0
12623 12624 1 0.135 402500.8
12624 12625 1 0.137 402500.8
12625 12626 1 0.147 319657.6
12625 12629 1 0.101 363171.2
12626 12627 1 0.110 284512.0
12626 12628 1 0.110 284512.0
12631 12632 1 0.135 402500.8
12632 12633 1 0.137 402500.8
12633 12634 1 0.147 319657.6
12633 12637 1 0.101 363171.2
12634 12635 1 0.110 284512.0
12634 12636 1 0.110 284512.0
12639 12640 1 0.135 402500.8
12640 12641 1 0.137 402500.8
12641 12642 1 0.147 319657.6
12641 12645 1 0.101 363171.2
12642 12643 1 0.110 284512.0
12642 12644 1 0.110 284512.0
12647 12648 1 0.135 402500.8
12648 12649 1 0.137 402500.8
12649 12650 1 0.147 319657.6
12649 12653 1 0.101 363171.2
12650 12651 1 0.110 284512.0
12650 12652 1 0.110 284512.0
12655 12656 1 0.135 402500.8
12656 12657 1 0.137 402500.8
12657 12658 1 0.147 319657.6
12657 12661 1 0.101 363171.2
12658 12659 1 0.110 284512.0
12658 12660 1 0.110 284512.0
12663 12664 1 0.135 402500.8
12664 12665 1 0.137 402500.8
12665 12666 1 0.147 319657.6
12665 12669 1 0.101 363171.2
12666 12667 1 0.110 284512.0
12666 12668 1 0.110 284512.0
12671 12672 1 0.135 402500.8
12672 12673 1 0.137 402500.8
12673 12674 1 0.147 319657.6
12673 12679 1 0.101 363171.2
12674 12675 1 0.143 267776.0
12674 12677 1 0.110 284512.0
12674 12678 1 0.110 284512.0
12675 12676 1 0.097 462750.4
12681 12682 1 0.135 402500.8
12682 12683 1 0.137 402500.8
12683 12684 1 0.147 319657.6
12683 12687 1 0.101 363171.2
12684 12685 1 0.110 284512.0
12684 12686 1 0.110 284512.0
12689 12690 1 0.135 402500.8
12690 12691 1 0.137 402500.8
12691 12692 1 0.147 319657.6
12691 12695 1 0.101 363171.2
12692 12693 1 0.110 284512.0
12692 12694 1 0.110 284512.0
12697 12698 1 0.135 402500.8
12698 12699 1 0.137 402500.8
12699 12700 1 0.147 319657.6
12699 12703 1 0.101 363171.2
12700 12701 1 0.110 284512.0
12700 12702 1 0.110 284512.0
12705 12706 1 0.135 402500.8
12706 12707 1 0.137 402500.8
12707 12708 1 0.147 319657.6
12707 12711 1 0.101 363171.2
12708 12709 1 0.110 284512.0
12708 12710 1 0.110 284512.0
12713 12714 1 0.135 402500.8
12714 12715 1 0.137 402500.8
12715 12716 1 0.147 319657.6
12715 12719 1 0.101 363171.2
12716 12717 1 0.110 284512.0
12716 12718 1 0.110 284512.0
12721 12722 1 0.135 402500.8
12722 12723 1 0.137 402500.8
12723 12724 1 0.147 319657.6
12723 12727 1 0.101 363171.2
12724 12725 1 0.110 284512.0
12724 12726 1 0.110 284512.0
12729 12730 1 0.135 402500.8
12730 12731 1 0.137 402500.8
12731 12732 1 0.147 319657.6
12731 12735 1 0.101 363171.2
12732 12733 1 0.110 284512.0
12732 12734 1 0.110 284512.0
12737 12738 1 0.135 402500.8
12738 12739 1 0.137 402500.8
12739 12740 1 0.147 319657.6
12739 12743 1 0.101 363171.2
12740 12741 1 0.110 284512.0
12740 12742 1 0.110 284512.0
12745 12746 1 0.135 402500.8
12746 12747 1 0.137 402500.8
12747 12748 1 0.147 319657.6
12747 12751 1 0.101 363171.2
12748 12749 1 0.110 284512.0
12748 12750 1 0.110 284512.0
12753 12754 1 0.135 402500.8
12754 12755 1 0.137 402500.8
12755 12756 1 0.147 319657.6
12755 12759 1 0.101 363171.2
12756 12757 1 0.110 284512.0
12756 12758 1 0.110 284512.0
12761 12762 1 0.135 402500.8
12762 12763 1 0.137 402500.8
12763 12764 1 0.147 319657.6
12763 12767 1 0.101 363171.2
12764 12765 1 0.110 284512.0
12764 12766 1 0.110 284512.0
12769 12770 1 0.135 402500.8
12770 12771 1 0.137 402500.8
12771 12772 1 0.147 319657.6
12771 12775 1 0.101 363171.2
12772 12773 1 0.110 284512.0
12772 12774 1 0.110 284512.0
12777 12778 1 0.135 402500.8
12778 12779 1 0.137 402500.8
12779 12780 1 0.147 319657.6
12779 12783 1 0.101 363171.2
12780 12781 1 0.110 284512.0
12780 12782 1 0.110 284512.0
12785 12786 1 0.135 402500.8
12786 12787 1 0.137 402500.8
12787 12788 1 0.147 319657.6
12787 12791 1 0.101 363171.2
12788 12789 1 0.110 284512.0
12788 12790 1 0.110 284512.0
12793 12794 1 0.135 402500.8
12794 12795 1 0.137 402500.8
12795 12796 1 0.147 319657.6
12795 12799 1 0.101 363171.2
12796 12797 1 0.110 284512.0
12796 12798 1 0.110 284512.0
12801 12802 1 0.135 402500.8
12802 12803 1 0.137 402500.8
12803 12804 1 0.147 319657.6
12803 12807 1 0.101 363171.2
12804 12805 1 0.110 284512.0
12804 12806 1 0.110 284512.0
12809 12810 1 0.135 402500.8
12810 12811 1 0.137 402500.8
12811 12812 1 0.147 319657.6
12811 12815 1 0.101 363171.2
12812 12813 1 0.110 284512.0
12812 12814 1 0.110 284512.0
12817 12818 1 0.135 402500.8
12818 12819 1 0.137 402500.8
12819 12820 1 0.147 319657.6
12819 12823 1 0.101 363171.2
12820 12821 1 0.110 284512.0
12820 12822 1 0.110 284512.0
12825 12826 1 0.135 402500.8
12826 12827 1 0.137 402500.8
12827 12828 1 0.147 319657.6
12827 12831 1 0.101 363171.2
12828 12829 1 0.110 284512.0
12828 12830 1 0.110 284512.0
12833 12834 1 0.135 402500.8
12834 12835 1 0.137 402500.8
12835 12836 1 0.147 319657.6
12835 12841 1 0.101 363171.2
12836 12837 1 0.143 267776.0
12836 12839 1 0.110 284512.0
12836 12840 1 0.110 284512.0
12837 12838 1 0.098 462750.4
12843 12844 1 0.135 402500.8
12844 12845 1 0.137 402500.8
12845 12846 1 0.147 319657.6
12845 12849 1 0.101 363171.2
12846 12847 1 0.110 284512.0
12846 12848 1 0.110 284512.0
12851 12852 1 0.135 402500.8
12852 12853 1 0.137 402500.8
12853 12854 1 0.147 319657.6
12853 12857 1 0.101 363171.2
12854 12855 1 0.110 284512.0
12854 12856 1 0.110 284512.0
12859 12860 1 0.135 402500.8
12860 12861 1 0.137 402500.8
12861 12862 1 0.147 319657.6
12861 12867 1 0.101 363171.2
12862 12863 1 0.143 267776.0
12862 12865 1 0.110 284512.0
12862 12866 1 0.110 284512.0
12863 12864 1 0.098 462750.4
12869 12870 1 0.135 402500.8
12870 12871 1 0.137 402500.8
12871 12872 1 0.147 319657.6
12871 12877 1 0.101 363171.2
12872 12873 1 0.143 267776.0
12872 12875 1 0.110 284512.0
12872 12876 1 0.110 284512.0
12873 12874 1 0.097 462750.4
12879 12880 1 0.135 402500.8
12880 12881 1 0.137 402500.8
12881 12882 1 0.147 319657.6
12881 12885 1 0.101 363171.2
12882 12883 1 0.110 284512.0
12882 12884 1 0.110 284512.0
12887 12888 1 0.135 402500.8
12888 12889 1 0.137 402500.8
12889 12890 1 0.147 319657.6
12889 12893 1 0.101 363171.2
12890 12891 1 0.110 284512.0
12890 12892 1 0.110 284512.0
12895 12896 1 0.135 402500.8
12896 12897 1 0.137 402500.8
12897 12898 1 0.147 319657.6
12897 12901 1 0.101 363171.2
12898 12899 1 0.110 284512.0
12898 12900 1 0.110 284512.0
12903 12904 1 0.135 402500.8
12904 12905 1 0.137 402500.8
12905 12906 1 0.147 319657.6
12905 12911 1 0.101 363171.2
12906 12907 1 0.143 267776.0
12906 12909 1 0.110 284512.0
12906 12910 1 0.110 284512.0
12907 12908 1 0.098 462750.4
12913 12914 1 0.135 402500.8
12914 12915 1 0.137 402500.8
12915 12916 1 0.147 319657.6
12915 12919 1 0.101 363171.2
12916 12917 1 0.110 284512.0
12916 12918 1 0.110 284512.0
12921 12922 1 0.135 402500.8
12922 12923 1 0.137 402500.8
12923 12924 1 0.147 319657.6
12923 12927 1 0.101 363171.2
12924 12925 1 0.110 284512.0
12924 12926 1 0.110 284512.0
12929 12930 1 0.135 402500.8
12930 12931 1 0.137 402500.8
12931 12932 1 0.147 319657.6
12931 12935 1 0.101 363171.2
12932 12933 1 0.110 284512.0
12932 12934 1 0.110 284512.0
12937 12938 1 0.135 402500.8
12938 12939 1 0.137 402500.8
12939 12940 1 0.147 319657.6
12939 12943 1 0.101 363171.2
12940 12941 1 0.110 284512.0
12940 12942 1 0.110 284512.0
12945 12946 1 0.135 402500.8
12946 12947 1 0.137 402500.8
12947 12948 1 0.147 319657.6
12947 12951 1 0.101 363171.2
12948 12949 1 0.110 284512.0
12948 12950 1 0.110 284512.0
12953 12954 1 0.135 402500.8
12954 12955 1 0.137 402500.8
12955 12956 1 0.147 319657.6
12955 12959 1 0.101 363171.2
12956 12957 1 0.110 284512.0
12956 12958 1 0.110 284512.0
12961 12962 1 0.135 402500.8
12962 12963 1 0.137 402500.8
12963 12964 1 0.147 319657.6
12963 12967 1 0.101 363171.2
12964 12965 1 0.110 284512.0
12964 12966 1 0.110 284512.0
12969 12970 1 0.135 402500.8
12970 12971 1 0.137 402500.8
12971 12972 1 0.147 319657.6
12971 12975 1 0.101 363171.2
12972 12973 1 0.110 284512.0
12972 12974 1 0.110 284512.0

[ angles ]
2 3 4 1 115.974 669.440
3 4 5 1 122.748 418.400
3 4 9 1 117.141 292.880
4 5 6 1 112.203 669.440
4 5 7 1 109.799 292.880
4 5 8 1 110.394 292.880
5 4 9 1 116.431 292.880
6 5 7 1 107.812 292.880
6 5 8 1 108.141 292.880
7 5 8 1 108.377 276.144
11 12 13 1 116.182 669.440
12 13 14 1 123.014 418.400
12 13 18 1 117.665 292.880
13 14 15 1 112.146 669.440
13 14 16 1 110.304 292.880
13 14 17 1 109.909 292.880
14 13 18 1 116.950 292.880
15 14 16 1 108.147 292.880
15 14 17 1 107.761 292.880
16 14 17 1 108.464 276.144
20 21 22 1 118.794 669.440
21 22 23 1 123.066 418.400
21 22 27 1 117.297 292.880
22 23 24 1 112.574 669.440
22 23 25 1 109.745 292.880
22 23 26 1 110.254 292.880
23 22 27 1 116.799 292.880
24 23 25 1 107.865 292.880
24 23 26 1 107.980 292.880
25 23 26 1 108.297 276.144
29 30 31 1 115.974 669.440
30 31 32 1 122.748 418.400
30 31 36 1 117.141 292.880
31 32 33 1 112.203 669.440
31 32 34 1 109.799 292.880
31 32 35 1 110.394 292.880
32 31 36 1 116.431 292.880
33 32 34 1 107.812 292.880
33 32 35 1 108.141 292.880
34 32 35 1 108.377 276.144
38 39 40 1 116.182 669.440
39 40 41 1 123.014 418.400
39 40 46 1 117.665 292.880
40 41 42 1 112.146 669.440
40 41 44 1 110.304 292.880
40 41 45 1 109.909 292.880
41 40 46 1 116.950 292.880
41 42 43 1 107.577 460.240
42 41 44 1 108.147 292.880
42 41 45 1 107.761 292.880
44 41 45 1 108.464 276.144
48 49 50 1 118.794 669.440
49 50 51 1 123.066 418.400
49 50 56 1 117.297 292.880
50 51 52 1 112.574 669.440
50 51 54 1 109.745 292.880
50 51 55 1 110.254 292.880
51 50 56 1 116.799 292.880
51 52 53 1 108.806 460.240
52 51 54 1 107.865 292.880
52 51 55 1 107.980 292.880
54 51 55 1 108.297 276.144
58 59 60 1 115.974 669.440
59 60 61 1 122.748 418.400
59 60 65 1 117.141 292.880
60 61 62 1 112.203 669.440
60 61 63 1 109.799 292.880
60 61 64 1 110.394 292.880
61 60 65 1 116.431 292.880
62 61 63 1 107.812 292.880
62 61 64 1 108.141 292.880
63 61 64 1 108.377 276.144
67 68 69 1 116.182 669.440
68 69 70 1 123.014 418.400
68 69 74 1 117.665 292.880
69 70 71 1 112.146 669.440
69 70 72 1 110.304 292.880
69 70 73 1 109.909 292.880
70 69 74 1 116.950 292.880
71 70 72 1 108.147 292.880
71 70 73 1 107.761 292.880
72 70 73 1 108.464 276.144
76 77 78 1 118.794 669.440
77 78 79 1 123.066 418.400
77 78 83 1 117.297 292.880
78 79 80 1 112.574 669.440
78 79 81 1 109.745 292.880
78 79 82 1 110.254 292.880
79 78 83 1 116.799 292.880
80 79 81 1 107.865 292.880
80 79 82 1 107.980 292.880
81 79 82 1 108.297 276.144
85 86 87 1 115.974 669.440
86 87 88 1 122.748 418.400
86 87 92 1 117.141 292.880
87 88 89 1 112.203 669.440
87 88 90 1 109.799 292.880
87 88 91 1 110.394 292.880
88 87 92 1 116.431 292.880
89 88 90 1 107.812 292.880
89 88 91 1 108.141 292.880
90 88 91 1 108.377 276.144
94 95 96 1 116.182 669.440
95 96 97 1 123.014 418.400
95 96 102 1 117.665 292.880
96 97 98 1 112.146 669.440
96 97 100 1 110.304 292.880
96 97 101 1 109.909 292.880
97 96 102 1 116.950 292.880
97 98 99 1 107.577 460.240
98 97 100 1 108.147 292.880
98 97 101 1 107.761 292.880
100 97 101 1 108.464 276.144
104 105 106 1 118.794 669.440
105 106 107 1 123.066 418.400
105 106 111 1 117.297 292.880
106 107 108 1 112.574 669.440
106 107 109 1 109.745 292.880
106 107 110 1 110.254 292.880
107 106 111 1 116.799 292.880
108 107 109 1 107.865 292.880
108 107 110 1 107.980 292.880
109 107 110 1 108.297 276.144
113 114 115 1 115.974 669.440
114 115 116 1 122.748 418.400
114 115 120 1 117.141 292.880
115 116 117 1 112.203 669.440
115 116 118 1 109.799 292.880
115 116 119 1 110.394 292.880
116 115 120 1 116.431 292.880
117 116 118 1 107.812 292.880
117 116 119 1 108.141 292.880
118 116 119 1 108.377 276.144
122 123 124 1 116.182 669.440
123 124 125 1 123.014 418.400
123 124 129 1 117.665 292.880
124 125 126 1 112.146 669.440
124 125 127 1 110.304 292.880
124 125 128 1 109.909 292.880
125 124 129 1 116.950 292.880
126 125 127 1 108.147 292.880
126 125 128 1 107.761 292.880
127 125 128 1 108.464 276.144
131 132 133 1 118.794 669.440
132 133 134 1 123.066 418.400
132 133 138 1 117.297 292.880
133 134 135 1 112.574 669.440
133 134 136 1 109.745 292.880
133 134 137 1 110.254 292.880
134 133 138 1 116.799 292.880
135 134 136 1 107.865 292.880
135 134 137 1 107.980 292.880
136 134 137 1 108.297 276.144
140 141 142 1 115.974 669.440
141 142 143 1 122.748 418.400
141 142 147 1 117.141 292.880
142 143 144 1 112.203 669.440
142 143 145 1 109.799 292.880
142 143 146 1 110.394 292.880
143 142 147 1 116.431 292.880
144 143 145 1 107.812 292.880
144 143 146 1 108.141 292.880
145 143 146 1 108.377 276.144
149 150 151 1 116.182 669.440
150 151 152 1 123.014 418.400
150 151 156 1 117.665 292.880
151 152 153 1 112.146 669.440
151 152 154 1 110.304 292.880
151 152 155 1 109.909 292.880
152 151 156 1 116.950 292.880
153 152 154 1 108.147 292.880
153 152 155 1 107.761 292.880
154 152 155 1 108.464 276.144
158 159 160 1 118.794 669.440
159 160 161 1 123.066 418.400
159 160 165 1 117.297 292.880
160 161 162 1 112.574 669.440
160 161 163 1 109.745 292.880
160 161 164 1 110.254 292.880
161 160 165 1 116.799 292.880
162 161 163 1 107.865 292.880
162 161 164 1 107.980 292.880
163 161 164 1 108.297 276.144
167 168 169 1 115.974 669.440
168 169 170 1 122.748 418.400
168 169 174 1 117.141 292.880
169 170 171 1 112.203 669.440
169 170 172 1 109.799 292.880
169 170 173 1 110.394 292.880
170 169 174 1 116.431 292.880
171 170 172 1 107.812 292.880
171 170 173 1 108.141 292.880
172 170 173 1 108.377 276.144
176 177 178 1 116.182 669.440
177 178 179 1 123.014 418.400
177 178 183 1 117.665 292.880
178 179 180 1 112.146 669.440
178 179 181 1 110.304 292.880
178 179 182 1 109.909 292.880
179 178 183 1 116.950 292.880
180 179 181 1 108.147 292.880
180 179 182 1 107.761 292.880
181 179 182 1 108.464 276.144
185 186 187 1 118.794 669.440
186 187 188 1 123.066 418.400
186 187 192 1 117.297 292.880
187 188 189 1 112.574 669.440
187 188 190 1 109.745 292.880
187 188 191 1 110.254 292.880
188 187 192 1 116.799 292.880
189 188 190 1 107.865 292.880
189 188 191 1 107.980 292.880
190 188 191 1 108.297 276.144
194 195 196 1 115.974 669.440
195 196 197 1 122.748 418.400
195 196 201 1 117.141 292.880
196 197 198 1 112.203 669.440
196 197 199 1 109.799 292.880
196 197 200 1 110.394 292.880
197 196 201 1 116.431 292.880
198 197 199 1 107.812 292.880
198 197 200 1 108.141 292.880
199 197 200 1 108.377 276.144
203 204 205 1 116.182 669.440
204 205 206 1 123.014 418.400
204 205 210 1 117.665 292.880
205 206 207 1 112.146 669.440
205 206 208 1 110.304 292.880
205 206 209 1 109.909 292.880
206 205 210 1 116.950 292.880
207 206 208 1 108.147 292.880
207 206 209 1 107.761 292.880
208 206 209 1 108.464 276.144
212 213 214 1 118.794 669.440
213 214 215 1 123.066 418.400
213 214 220 1 117.297 292.880
214 215 216 1 112.574 669.440
214 215 218 1 109.745 292.880
214 215 219 1 110.254 292.880
215 214 220 1 116.799 292.880
215 216 217 1 108.806 460.240
216 215 218 1 107.865 292.880
216 215 219 1 107.980 292.880
218 215 219 1 108.297 276.144
222 223 224 1 115.974 669.440
223 224 225 1 122.748 418.400
223 224 229 1 117.141 292.880
224 225 226 1 112.203 669.440
224 225 227 1 109.799 292.880
224 225 228 1 110.394 292.880
225 224 229 1 116.431 292.880
226 225 227 1 107.812 292.880
226 225 228 1 108.141 292.880
227 225 228 1 108.377 276.144
231 232 233 1 116.182 669.440
232 233 234 1 123.014 418.400
232 233 238 1 117.665 292.880
233 234 235 1 112.146 669.440
233 234 236 1 110.304 292.880
233 234 237 1 109.909 292.880
234 233 238 1 116.950 292.880
235 234 236 1 108.147 292.880
235 234 237 1 107.761 292.880
236 234 237 1 108.464 276.144
240 241 242 1 118.794 669.440
241 242 243 1 123.066 418.400
241 242 247 1 117.297 292.880
242 243 244 1 112.574 669.440
242 243 245 1 109.745 292.880
242 243 246 1 110.254 292.880
243 242 247 1 116.799 292.880
244 243 245 1 107.865 292.880
244 243 246 1 107.980 292.880
245 243 246 1 108.297 276.144
249 250 251 1 115.974 669.440
250 251 252 1 122.748 418.400
250 251 257 1 117.141 292.880
251 252 253 1 112.203 669.440
251 252 255 1 109.799 292.880
251 252 256 1 110.394 292.880
252 251 257 1 116.431 292.880
252 253 254 1 107.831 460.240
253 252 255 1 107.812 292.880
253 252 256 1 108.141 292.880
255 252 256 1 108.377 276.144
259 260 261 1 116.182 669.440
260 261 262 1 123.014 418.400
260 261 266 1 117.665 292.880
261 262 263 1 112.146 669.440
261 262 264 1 110.304 292.880
261 262 265 1 109.909 292.880
262 261 266 1 116.950 292.880
263 262 264 1 108.147 292.880
263 262 265 1 107.761 292.880
264 262 265 1 108.464 276.144
268 269 270 1 118.794 669.440
269 270 271 1 123.066 418.400
269 270 275 1 117.297 292.880
270 271 272 1 112.574 669.440
270 271 273 1 109.745 292.880
270 271 274 1 110.254 292.880
271 270 275 1 116.799 292.880
272 271 273 1 107.865 292.880
272 271 274 1 107.980 292.880
273 271 274 1 108.297 276.144
277 278 279 1 115.974 669.440
278 279 280 1 122.748 418.400
278 279 284 1 117.141 292.880
279 280 281 1 112.203 669.440
279 280 282 1 109.799 292.880
279 280 283 1 110.394 292.880
280 279 284 1 116.431 292.880
281 280 282 1 107.812 292.880
281 280 283 1 108.141 292.880
282 280 283 1 108.377 276.144
286 287 288 1 116.182 669.440
287 288 289 1 123.014 418.400
287 288 293 1 117.665 292.880
288 289 290 1 112.146 669.440
288 289 291 1 110.304 292.880
288 289 292 1 109.909 292.880
289 288 293 1 116.950 292.880
290 289 291 1 108.147 292.880
290 289 292 1 107.761 292.880
291 289 292 1 108.464 276.144
295 296 297 1 118.794 669.440
296 297 298 1 123.066 418.400
296 297 302 1 117.297 292.880
297 298 299 1 112.574 669.440
297 298 300 1 109.745 292.880
297 298 301 1 110.254 292.880
298 297 302 1 116.799 292.880
299 298 300 1 107.865 292.880
299 298 301 1 107.980 292.880
300 298 301 1 108.297 276.144
304 305 306 1 115.974 669.440
305 306 307 1 122.748 418.400
305 306 311 1 117.141 292.880
306 307 308 1 112.203 669.440
306 307 309 1 109.799 292.880
306 307 310 1 110.394 292.880
307 306 311 1 116.431 292.880
308 307 309 1 107.812 292.880
308 307 310 1 108.141 292.880
309 307 310 1 108.377 276.144
313 314 315 1 116.182 669.440
314 315 316 1 123.014 418.400
314 315 320 1 117.665 292.880
315 316 317 1 112.146 669.440
315 316 318 1 110.304 292.880
315 316 319 1 109.909 292.880
316 315 320 1 116.950 292.880
317 316 318 1 108.147 292.880
317 316 319 1 107.761 292.880
318 316 319 1 108.464 276.144
322 323 324 1 118.794 669.440
323 324 325 1 123.066 418.400
323 324 329 1 117.297 292.880
324 325 326 1 112.574 669.440
324 325 327 1 109.745 292.880
324 325 328 1 110.254 292.880
325 324 329 1 116.799 292.880
326 325 327 1 107.865 292.880
326 325 328 1 107.980 292.880
327 325 328 1 108.297 276.144
331 332 333 1 115.974 669.440
332 333 334 1 122.748 418.400
332 333 338 1 117.141 292.880
333 334 335 1 112.203 669.440
333 334 336 1 109.799 292.880
333 334 337 1 110.394 292.880
334 333 338 1 116.431 292.880
335 334 336 1 107.812 292.880
335 334 337 1 108.141 292.880
336 334 337 1 108.377 276.144
340 341 342 1 116.182 669.440
341 342 343 1 123.014 418.400
341 342 348 1 117.665 292.880
342 343 344 1 112.146 669.440
342 343 346 1 110.304 292.880
342 343 347 1 109.909 292.880
343 342 348 1 116.950 292.880
343 344 345 1 107.577 460.240
344 343 346 1 108.147 292.880
344 343 347 1 107.761 292.880
346 343 347 1 108.464 276.144
350 351 352 1 118.794 669.440
351 352 353 1 123.066 418.400
351 352 357 1 117.297 292.880
352 353 354 1 112.574 669.440
352 353 355 1 109.745 292.880
352 353 356 1 110.254 292.880
353 352 357 1 116.799 292.880
354 353 355 1 107.865 292.880
354 353 356 1 107.980 292.880
355 353 356 1 108.297 276.144
359 360 361 1 115.974 669.440
360 361 362 1 122.748 418.400
360 361 366 1 117.141 292.880
361 362 363 1 112.203 669.440
361 362 364 1 109.799 292.880
361 362 365 1 110.394 292.880
362 361 366 1 116.431 292.880
363 362 364 1 107.812 292.880
363 362 365 1 108.141 292.880
364 362 365 1 108.377 276.144
368 369 370 1 116.182 669.440
369 370 371 1 123.014 418.400
369 370 376 1 117.665 292.880
370 371 372 1 112.146 669.440
370 371 374 1 110.304 292.880
370 371 375 1 109.909 292.880
371 370 376 1 116.950 292.880
371 372 373 1 107.577 460.240
372 371 374 1 108.147 292.880
372 371 375 1 107.761 292.880
374 371 375 1 108.464 276.144
378 379 380 1 118.794 669.440
379 380 381 1 123.066 418.400
379 380 385 1 117.297 292.880
380 381 382 1 112.574 669.440
380 381 383 1 109.745 292.880
380 381 384 1 110.254 292.880
381 380 385 1 116.799 292.880
382 381 383 1 107.865 292.880
382 381 384 1 107.980 292.880
383 381 384 1 108.297 276.144
387 388 389 1 115.974 669.440
388 389 390 1 122.748 418.400
388 389 394 1 117.141 292.880
389 390 391 1 112.203 669.440
389 390 392 1 109.799 292.880
389 390 393 1 110.394 292.880
390 389 394 1 116.431 292.880
391 390 392 1 107.812 292.880
391 390 393 1 108.141 292.880
392 390 393 1 108.377 276.144
396 397 398 1 116.182 669.440
397 398 399 1 123.014 418.400
397 398 404 1 117.665 292.880
398 399 400 1 112.146 669.440
398 399 402 1 110.304 292.880
398 399 403 1 109.909 292.880
399 398 404 1 116.950 292.880
399 400 401 1 107.577 460.240
400 399 402 1 108.147 292.880
400 399 403 1 107.761 292.880
402 399 403 1 108.464 276.144
406 407 408 1 118.794 669.440
407 408 409 1 123.066 418.400
407 408 413 1 117.297 292.880
408 409 410 1 112.574 669.440
408 409 411 1 109.745 292.880
408 409 412 1 110.254 292.880
409 408 413 1 116.799 292.880
410 409 411 1 107.865 292.880
410 409 412 1 107.980 292.880
411 409 412 1 108.297 276.144
415 416 417 1 115.974 669.440
416 417 418 1 122.748 418.400
416 417 422 1 117.141 292.880
417 418 419 1 112.203 669.440
417 418 420 1 109.799 292.880
417 418 421 1 110.394 292.880
418 417 422 1 116.431 292.880
419 418 420 1 107.812 292.880
419 418 421 1 108.141 292.880
420 418 421 1 108.377 276.144
424 425 426 1 116.182 669.440
425 426 427 1 123.014 418.400
425 426 431 1 117.665 292.880
426 427 428 1 112.146 669.440
426 427 429 1 110.304 292.880
426 427 430 1 109.909 292.880
427 426 431 1 116.950 292.880
428 427 429 1 108.147 292.880
428 427 430 1 107.761 292.880
429 427 430 1 108.464 276.144
433 434 435 1 118.794 669.440
434 435 436 1 123.066 418.400
434 435 440 1 117.297 292.880
435 436 437 1 112.574 669.440
435 436 438 1 109.745 292.880
435 436 439 1 110.254 292.880
436 435 440 1 116.799 292.880
437 436 438 1 107.865 292.880
437 436 439 1 107.980 292.880
438 436 439 1 108.297 276.144
442 443 444 1 115.974 669.440
443 444 445 1 122.748 418.400
443 444 449 1 117.141 292.880
444 445 446 1 112.203 669.440
444 445 447 1 109.799 292.880
444 445 448 1 110.394 292.880
445 444 449 1 116.431 292.880
446 445 447 1 107.812 292.880
446 445 448 1 108.141 292.880
447 445 448 1 108.377 276.144
451 452 453 1 116.182 669.440
452 453 454 1 123.014 418.400
452 453 458 1 117.665 292.880
453 454 455 1 112.146 669.440
453 454 456 1 110.304 292.880
453 454 457 1 109.909 292.880
454 453 458 1 116.950 292.880
455 454 456 1 108.147 292.880
455 454 457 1 107.761 292.880
456 454 457 1 108.464 276.144
460 461 462 1 118.794 669.440
461 462 463 1 123.066 418.400
461 462 467 1 117.297 292.880
462 463 464 1 112.574 669.440
462 463 465 1 109.745 292.880
462 463 466 1 110.254 292.880
463 462 467 1 116.799 292.880
464 463 465 1 107.865 292.880
464 463 466 1 107.980 292.880
465 463 466 1 108.297 276.144
469 470 471 1 115.974 669.440
470 471 472 1 122.748 418.400
470 471 476 1 117.141 292.880
471 472 473 1 112.203 669.440
471 472 474 1 109.799 292.880
471 472 475 1 110.394 292.880
472 471 476 1 116.431 292.880
473 472 474 1 107.812 292.880
473 472 475 1 108.141 292.880
474 472 475 1 108.377 276.144
478 479 480 1 116.182 669.440
479 480 481 1 123.014 418.400
479 480 485 1 117.665 292.880
480 481 482 1 112.146 669.440
480 481 483 1 110.304 292.880
480 481 484 1 109.909 292.880
481 480 485 1 116.950 292.880
482 481 483 1 108.147 292.880
482 481 484 1 107.761 292.880
483 481 484 1 108.464 276.144
487 488 489 1 118.794 669.440
488 489 490 1 123.066 418.400
488 489 494 1 117.297 292.880
489 490 491 1 112.574 669.440
489 490 492 1 109.745 292.880
489 490 493 1 110.254 292.880
490 489 494 1 116.799 292.880
491 490 492 1 107.865 292.880
491 490 493 1 107.980 292.880
492 490 493 1 108.297 276.144
496 497 498 1 115.974 669.440
497 498 499 1 122.748 418.400
497 498 503 1 117.141 292.880
498 499 500 1 112.203 669.440
498 499 501 1 109.799 292.880
498 499 502 1 110.394 292.880
499 498 503 1 116.431 292.880
500 499 501 1 107.812 292.880
500 499 502 1 108.141 292.880
501 499 502 1 108.377 276.144
505 506 507 1 116.182 669.440
506 507 508 1 123.014 418.400
506 507 512 1 117.665 292.880
507 508 509 1 112.146 669.440
507 508 510 1 110.304 292.880
507 508 511 1 109.909 292.880
508 507 512 1 116.950 292.880
509 508 510 1 108.147 292.880
509 508 511 1 107.761 292.880
510 508 511 1 108.464 276.144
514 515 516 1 118.794 669.440
515 516 517 1 123.066 418.400
515 516 521 1 117.297 292.880
516 517 518 1 112.574 669.440
516 517 519 1 109.745 292.880
516 517 520 1 110.254 292.880
517 516 521 1 116.799 292.880
518 517 519 1 107.865 292.880
518 517 520 1 107.980 292.880
519 517 520 1 108.297 276.144
523 524 525 1 115.974 669.440
524 525 526 1 122.748 418.400
524 525 529 1 117.141 292.880
525 526 527 1 109.799 292.880
525 526 528 1 110.394 292.880
526 525 529 1 116.431 292.880
527 526 528 1 108.377 276.144
531 532 533 1 116.182 669.440
532 533 534 1 123.014 418.400
532 533 538 1 117.665 292.880
533 534 535 1 112.146 669.440
533 534 536 1 110.304 292.880
533 534 537 1 109.909 292.880
534 533 538 1 116.950 292.880
535 534 536 1 108.147 292.880
535 534 537 1 107.761 292.880
536 534 537 1 108.464 276.144
540 541 542 1 118.794 669.440
541 542 543 1 123.066 418.400
541 542 547 1 117.297 292.880
542 543 544 1 112.574 669.440
542 543 545 1 109.745 292.880
542 543 546 1 110.254 292.880
543 542 547 1 116.799 292.880
544 543 545 1 107.865 292.880
544 543 546 1 107.980 292.880
545 543 546 1 108.297 276.144
549 550 551 1 115.974 669.440
550 551 552 1 122.748 418.400
550 551 556 1 117.141 292.880
551 552 553 1 112.203 669.440
551 552 554 1 109.799 292.880
551 552 555 1 110.394 292.880
552 551 556 1 116.431 292.880
553 552 554 1 107.812 292.880
553 552 555 1 108.141 292.880
554 552 555 1 108.377 276.144
558 559 560 1 116.182 669.440
559 560 561 1 123.014 418.400
559 560 566 1 117.665 292.880
560 561 562 1 112.146 669.440
560 561 564 1 110.304 292.880
560 561 565 1 109.909 292.880
561 560 566 1 116.950 292.880
561 562 563 1 107.577 460.240
562 561 564 1 108.147 292.880
562 561 565 1 107.761 292.880
564 561 565 1 108.464 276.144
568 569 570 1 118.794 669.440
569 570 571 1 123.066 418.400
569 570 575 1 117.297 292.880
570 571 572 1 112.574 669.440
570 571 573 1 109.745 292.880
570 571 574 1 110.254 292.880
571 570 575 1 116.799 292.880
572 571 573 1 107.865 292.880
572 571 574 1 107.980 292.880
573 571 574 1 108.297 276.144
577 578 579 1 115.974 669.440
578 579 580 1 122.748 418.400
578 579 584 1 117.141 292.880
579 580 581 1 112.203 669.440
579 580 582 1 109.799 292.880
579 580 583 1 110.394 292.880
580 579 584 1 116.431 292.880
581 580 582 1 107.812 292.880
581 580 583 1 108.141 292.880
582 580 583 1 108.377 276.144
586 587 588 1 116.182 669.440
587 588 589 1 123.014 418.400
587 588 593 1 117.665 292.880
588 589 590 1 112.146 669.440
588 589 591 1 110.304 292.880
588 589 592 1 109.909 292.880
589 588 593 1 116.950 292.880
590 589 591 1 108.147 292.880
590 589 592 1 107.761 292.880
591 589 592 1 108.464 276.144
595 596 597 1 118.794 669.440
596 597 598 1 123.066 418.400
596 597 602 1 117.297 292.880
597 598 599 1 112.574 669.440
597 598 600 1 109.745 292.880
597 598 601 1 110.254 292.880
598 597 602 1 116.799 292.880
599 598 600 1 107.865 292.880
599 598 601 1 107.980 292.880
600 598 601 1 108.297 276.144
604 605 606 1 115.974 669.440
605 606 607 1 122.748 418.400
605 606 611 1 117.141 292.880
606 607 608 1 112.203 669.440
606 607 609 1 109.799 292.880
606 607 610 1 110.394 292.880
607 606 611 1 116.431 292.880
608 607 609 1 107.812 292.880
608 607 610 1 108.141 292.880
609 607 610 1 108.377 276.144
613 614 615 1 116.182 669.440
614 615 616 1 123.014 418.400
614 615 621 1 117.665 292.880
615 616 617 1 112.146 669.440
615 616 619 1 110.304 292.880
615 616 620 1 109.909 292.880
616 615 621 1 116.950 292.880
616 617 618 1 107.577 460.240
617 616 619 1 108.147 292.880
617 616 620 1 107.761 292.880
619 616 620 1 108.464 276.144
623 624 625 1 118.794 669.440
624 625 626 1 123.066 418.400
624 625 630 1 117.297 292.880
625 626 627 1 112.574 669.440
625 626 628 1 109.745 292.880
625 626 629 1 110.254 292.880
626 625 630 1 116.799 292.880
627 626 628 1 107.865 292.880
627 626 629 1 107.980 292.880
628 626 629 1 108.297 276.144
632 633 634 1 115.974 669.440
633 634 635 1 122.748 418.400
633 634 639 1 117.141 292.880
634 635 636 1 112.203 669.440
634 635 637 1 109.799 292.880
634 635 638 1 110.394 292.880
635 634 639 1 116.431 292.880
636 635 637 1 107.812 292.880
636 635 638 1 108.141 292.880
637 635 638 1 108.377 276.144
641 642 643 1 116.182 669.440
642 643 644 1 123.014 418.400
642 643 648 1 117.665 292.880
643 644 645 1 112.146 669.440
643 644 646 1 110.304 292.880
643 644 647 1 109.909 292.880
644 643 648 1 116.950 292.880
645 644 646 1 108.147 292.880
645 644 647 1 107.761 292.880
646 644 647 1 108.464 276.144
650 651 652 1 118.794 669.440
651 652 653 1 123.066 418.400
651 652 657 1 117.297 292.880
652 653 654 1 112.574 669.440
652 653 655 1 109.745 292.880
652 653 656 1 110.254 292.880
653 652 657 1 116.799 292.880
654 653 655 1 107.865 292.880
654 653 656 1 107.980 292.880
655 653 656 1 108.297 276.144
659 660 661 1 115.974 669.440
660 661 662 1 122.748 418.400
660 661 666 1 117.141 292.880
661 662 663 1 112.203 669.440
661 662 664 1 109.799 292.880
661 662 665 1 110.394 292.880
662 661 666 1 116.431 292.880
663 662 664 1 107.812 292.880
663 662 665 1 108.141 292.880
664 662 665 1 108.377 276.144
668 669 670 1 116.182 669.440
669 670 671 1 123.014 418.400
669 670 675 1 117.665 292.880
670 671 672 1 112.146 669.440
670 671 673 1 110.304 292.880
670 671 674 1 109.909 292.880
671 670 675 1 116.950 292.880
672 671 673 1 108.147 292.880
672 671 674 1 107.761 292.880
673 671 674 1 108.464 276.144
677 678 679 1 118.794 669.440
678 679 680 1 123.066 418.400
678 679 684 1 117.297 292.880
679 680 681 1 112.574 669.440
679 680 682 1 109.745 292.880
679 680 683 1 110.254 292.880
680 679 684 1 116.799 292.880
681 680 682 1 107.865 292.880
681 680 683 1 107.980 292.880
682 680 683 1 108.297 276.144
686 687 688 1 115.974 669.440
687 688 689 1 122.748 418.400
687 688 694 1 117.141 292.880
688 689 690 1 112.203 669.440
688 689 692 1 109.799 292.880
688 689 693 1 110.394 292.880
689 688 694 1 116.431 292.880
689 690 691 1 107.831 460.240
690 689 692 1 107.812 292.880
690 689 693 1 108.141 292.880
692 689 693 1 108.377 276.144
696 697 698 1 116.182 669.440
697 698 699 1 123.014 418.400
697 698 703 1 117.665 292.880
698 699 700 1 112.146 669.440
698 699 701 1 110.304 292.880
698 699 702 1 109.909 292.880
699 698 703 1 116.950 292.880
700 699 701 1 108.147 292.880
700 699 702 1 107.761 292.880
701 699 702 1 108.464 276.144
705 706 707 1 118.794 669.440
706 707 708 1 123.066 418.400
706 707 712 1 117.297 292.880
707 708 709 1 112.574 669.440
707 708 710 1 109.745 292.880
707 708 711 1 110.254 292.880
708 707 712 1 116.799 292.880
709 708 710 1 107.865 292.880
709 708 711 1 107.980 292.880
710 708 711 1 108.297 276.144
714 715 716 1 115.974 669.440
715 716 717 1 122.748 418.400
715 716 721 1 117.141 292.880
716 717 718 1 112.203 669.440
716 717 719 1 109.799 292.880
716 717 720 1 110.394 292.880
717 716 721 1 116.431 292.880
718 717 719 1 107.812 292.880
718 717 720 1 108.141 292.880
719 717 720 1 108.377 276.144
723 724 725 1 116.182 669.440
724 725 726 1 123.014 418.400
724 725 729 1 117.665 292.880
725 726 727 1 110.304 292.880
725 726 728 1 109.909 292.880
726 725 729 1 116.950 292.880
727 726 728 1 108.464 276.144
731 732 733 1 118.794 669.440
732 733 734 1 123.066 418.400
732 733 738 1 117.297 292.880
733 734 735 1 112.574 669.440
733 734 736 1 109.745 292.880
733 734 737 1 110.254 292.880
734 733 738 1 116.799 292.880
735 734 736 1 107.865 292.880
735 734 737 1 107.980 292.880
736 734 737 1 108.297 276.144
740 741 742 1 115.974 669.440
741 742 743 1 122.748 418.400
741 742 747 1 117.141 292.880
742 743 744 1 112.203 669.440
742 743 745 1 109.799 292.880
742 743 746 1 110.394 292.880
743 742 747 1 116.431 292.880
744 743 745 1 107.812 292.880
744 743 746 1 108.141 292.880
745 743 746 1 108.377 276.144
749 750 751 1 116.182 669.440
750 751 752 1 123.014 418.400
750 751 757 1 117.665 292.880
751 752 753 1 112.146 669.440
751 752 755 1 110.304 292.880
751 752 756 1 109.909 292.880
752 751 757 1 116.950 292.880
752 753 754 1 107.577 460.240
753 752 755 1 108.147 292.880
753 752 756 1 107.761 292.880
755 752 756 1 108.464 276.144
759 760 761 1 118.794 669.440
760 761 762 1 123.066 418.400
760 761 767 1 117.297 292.880
761 762 763 1 112.574 669.440
761 762 765 1 109.745 292.880
761 762 766 1 110.254 292.880
762 761 767 1 116.799 292.880
762 763 764 1 108.806 460.240
763 762 765 1 107.865 292.880
763 762 766 1 107.980 292.880
765 762 766 1 108.297 276.144
769 770 771 1 115.974 669.440
770 771 772 1 122.748 418.400
770 771 776 1 117.141 292.880
771 772 773 1 112.203 669.440
771 772 774 1 109.799 292.880
771 772 775 1 110.394 292.880
772 771 776 1 116.431 292.880
773 772 774 1 107.812 292.880
773 772 775 1 108.141 292.880
774 772 775 1 108.377 276.144
778 779 780 1 116.182 669.440
779 780 781 1 123.014 418.400
779 780 785 1 117.665 292.880
780 781 782 1 112.146 669.440
780 781 783 1 110.304 292.880
780 781 784 1 109.909 292.880
781 780 785 1 116.950 292.880
782 781 783 1 108.147 292.880
782 781 784 1 107.761 292.880
783 781 784 1 108.464 276.144
787 788 789 1 118.794 669.440
788 789 790 1 123.066 418.400
788 789 794 1 117.297 292.880
789 790 791 1 112.574 669.440
789 790 792 1 109.745 292.880
789 790 793 1 110.254 292.880
790 789 794 1 116.799 292.880
791 790 792 1 107.865 292.880
791 790 793 1 107.980 292.880
792 790 793 1 108.297 276.144
796 797 798 1 115.974 669.440
797 798 799 1 122.748 418.400
797 798 802 1 117.141 292.880
798 799 800 1 109.799 292.880
798 799 801 1 110.394 292.880
799 798 802 1 116.431 292.880
800 799 801 1 108.377 276.144
804 805 806 1 116.182 669.440
805 806 807 1 123.014 418.400
805 806 811 1 117.665 292.880
806 807 808 1 112.146 669.440
806 807 809 1 110.304 292.880
806 807 810 1 109.909 292.880
807 806 811 1 116.950 292.880
808 807 809 1 108.147 292.880
808 807 810 1 107.761 292.880
809 807 810 1 108.464 276.144
813 814 815 1 118.794 669.440
814 815 816 1 123.066 418.400
814 815 820 1 117.297 292.880
815 816 817 1 112.574 669.440
815 816 818 1 109.745 292.880
815 816 819 1 110.254 292.880
816 815 820 1 116.799 292.880
817 816 818 1 107.865 292.880
817 816 819 1 107.980 292.880
818 816 819 1 108.297 276.144
822 823 824 1 115.974 669.440
823 824 825 1 122.748 418.400
823 824 829 1 117.141 292.880
824 825 826 1 112.203 669.440
824 825 827 1 109.799 292.880
824 825 828 1 110.394 292.880
825 824 829 1 116.431 292.880
826 825 827 1 107.812 292.880
826 825 828 1 108.141 292.880
827 825 828 1 108.377 276.144
831 832 833 1 116.182 669.440
832 833 834 1 123.014 418.400
832 833 838 1 117.665 292.880
833 834 835 1 112.146 669.440
833 834 836 1 110.304 292.880
833 834 837 1 109.909 292.880
834 833 838 1 116.950 292.880
835 834 836 1 108.147 292.880
835 834 837 1 107.761 292.880
836 834 837 1 108.464 276.144
840 841 842 1 118.794 669.440
841 842 843 1 123.066 418.400
841 842 847 1 117.297 292.880
842 843 844 1 112.574 669.440
842 843 845 1 109.745 292.880
842 843 846 1 110.254 292.880
843 842 847 1 116.799 292.880
844 843 845 1 107.865 292.880
844 843 846 1 107.980 292.880
845 843 846 1 108.297 276.144
849 850 851 1 115.974 669.440
850 851 852 1 122.748 418.400
850 851 856 1 117.141 292.880
851 852 853 1 112.203 669.440
851 852 854 1 109.799 292.880
851 852 855 1 110.394 292.880
852 851 856 1 116.431 292.880
853 852 854 1 107.812 292.880
853 852 855 1 108.141 292.880
854 852 855 1 108.377 276.144
858 859 860 1 116.182 669.440
859 860 861 1 123.014 418.400
859 860 865 1 117.665 292.880
860 861 862 1 112.146 669.440
860 861 863 1 110.304 292.880
860 861 864 1 109.909 292.880
861 860 865 1 116.950 292.880
862 861 863 1 108.147 292.880
862 861 864 1 107.761 292.880
863 861 864 1 108.464 276.144
867 868 869 1 118.794 669.440
868 869 870 1 123.066 418.400
868 869 874 1 117.297 292.880
869 870 871 1 112.574 669.440
869 870 872 1 109.745 292.880
869 870 873 1 110.254 292.880
870 869 874 1 116.799 292.880
871 870 872 1 107.865 292.880
871 870 873 1 107.980 292.880
872 870 873 1 108.297 276.144
876 877 878 1 115.974 669.440
877 878 879 1 122.748 418.400
877 878 882 1 117.141 292.880
878 879 880 1 109.799 292.880
878 879 881 1 110.394 292.880
879 878 882 1 116.431 292.880
880 879 881 1 108.377 276.144
884 885 886 1 116.182 669.440
885 886 887 1 123.014 418.400
885 886 891 1 117.665 292.880
886 887 888 1 112.146 669.440
886 887 889 1 110.304 292.880
886 887 890 1 109.909 292.880
887 886 891 1 116.950 292.880
888 887 889 1 108.147 292.880
888 887 890 1 107.761 292.880
889 887 890 1 108.464 276.144
893 894 895 1 118.794 669.440
894 895 896 1 123.066 418.400
894 895 901 1 117.297 292.880
895 896 897 1 112.574 669.440
895 896 899 1 109.745 292.880
895 896 900 1 110.254 292.880
896 895 901 1 116.799 292.880
896 897 898 1 108.806 460.240
897 896 899 1 107.865 292.880
897 896 900 1 107.980 292.880
899 896 900 1 108.297 276.144
903 904 905 1 115.974 669.440
904 905 906 1 122.748 418.400
904 905 910 1 117.141 292.880
905 906 907 1 112.203 669.440
905 906 908 1 109.799 292.880
905 906 909 1 110.394 292.880
906 905 910 1 116.431 292.880
907 906 908 1 107.812 292.880
907 906 909 1 108.141 292.880
908 906 909 1 108.377 276.144
912 913 914 1 116.182 669.440
913 914 915 1 123.014 418.400
913 914 919 1 117.665 292.880
914 915 916 1 112.146 669.440
914 915 917 1 110.304 292.880
914 915 918 1 109.909 292.880
915 914 919 1 116.950 292.880
916 915 917 1 108.147 292.880
916 915 918 1 107.761 292.880
917 915 918 1 108.464 276.144
921 922 923 1 118.794 669.440
922 923 924 1 123.066 418.400
922 923 928 1 117.297 292.880
923 924 925 1 112.574 669.440
923 924 926 1 109.745 292.880
923 924 927 1 110.254 292.880
924 923 928 1 116.799 292.880
925 924 926 1 107.865 292.880
925 924 927 1 107.980 292.880
926 924 927 1 108.297 276.144
930 931 932 1 115.974 669.440
931 932 933 1 122.748 418.400
931 932 937 1 117.141 292.880
932 933 934 1 112.203 669.440
932 933 935 1 109.799 292.880
932 933 936 1 110.394 292.880
933 932 937 1 116.431 292.880
934 933 935 1 107.812 292.880
934 933 936 1 108.141 292.880
935 933 936 1 108.377 276.144
939 940 941 1 116.182 669.440
940 941 942 1 123.014 418.400
940 941 946 1 117.665 292.880
941 942 943 1 112.146 669.440
941 942 944 1 110.304 292.880
941 942 945 1 109.909 292.880
942 941 946 1 116.950 292.880
943 942 944 1 108.147 292.880
943 942 945 1 107.761 292.880
944 942 945 1 108.464 276.144
948 949 950 1 118.794 669.440
949 950 951 1 123.066 418.400
949 950 955 1 117.297 292.880
950 951 952 1 112.574 669.440
950 951 953 1 109.745 292.880
950 951 954 1 110.254 292.880
951 950 955 1 116.799 292.880
952 951 953 1 107.865 292.880
952 951 954 1 107.980 292.880
953 951 954 1 108.297 276.144
957 958 959 1 115.974 669.440
958 959 960 1 122.748 418.400
958 959 964 1 117.141 292.880
959 960 961 1 112.203 669.440
959 960 962 1 109.799 292.880
959 960 963 1 110.394 292.880
960 959 964 1 116.431 292.880
961 960 962 1 107.812 292.880
961 960 963 1 108.141 292.880
962 960 963 1 108.377 276.144
966 967 968 1 116.182 669.440
967 968 969 1 123.014 418.400
967 968 974 1 117.665 292.880
968 969 970 1 112.146 669.440
968 969 972 1 110.304 292.880
968 969 973 1 109.909 292.880
969 968 974 1 116.950 292.880
969 970 971 1 107.577 460.240
970 969 972 1 108.147 292.880
970 969 973 1 107.761 292.880
972 969 973 1 108.464 276.144
976 977 978 1 118.794 669.440
977 978 979 1 123.066 418.400
977 978 984 1 117.297 292.880
978 979 980 1 112.574 669.440
978 979 982 1 109.745 292.880
978 979 983 1 110.254 292.880
979 978 984 1 116.799 292.880
979 980 981 1 108.806 460.240
980 979 982 1 107.865 292.880
980 979 983 1 107.980 292.880
982 979 983 1 108.297 276.144
986 987 988 1 115.974 669.440
987 988 989 1 122.748 418.400
987 988 994 1 117.141 292.880
988 989 990 1 112.203 669.440
988 989 992 1 109.799 292.880
988 989 993 1 110.394 292.880
989 988 994 1 116.431 292.880
989 990 991 1 107.831 460.240
990 989 992 1 107.812 292.880
990 989 993 1 108.141 292.880
992 989 993 1 108.377 276.144
996 997 998 1 116.182 669.440
997 998 999 1 123.014 418.400
997 998 1003 1 117.665 292.880
998 999 1000 1 112.146 669.440
998 999 1001 1 110.304 292.880
998 999 1002 1 109.909 292.880
999 998 1003 1 116.950 292.880
1000 999 1001 1 108.147 292.880
1000 999 1002 1 107.761 292.880
1001 999 1002 1 108.464 276.144
1005 1006 1007 1 118.794 669.440
1006 1007 1008 1 123.066 418.400
1006 1007 1012 1 117.297 292.880
1007 1008 1009 1 112.574 669.440
1007 1008 1010 1 109.745 292.880
1007 1008 1011 1 110.254 292.880
1008 1007 1012 1 116.799 292.880
1009 1008 1010 1 107.865 292.880
1009 1008 1011 1 107.980 292.880
1010 1008 1011 1 108.297 276.144
1014 1015 1016 1 115.974 669.440
1015 1016 1017 1 122.748 418.400
1015 1016 1021 1 117.141 292.880
1016 1017 1018 1 112.203 669.440
1016 1017 1019 1 109.799 292.880
1016 1017 1020 1 110.394 292.880
1017 1016 1021 1 116.431 292.880
1018 1017 1019 1 107.812 292.880
1018 1017 1020 1 108.141 292.880
1019 1017 1020 1 108.377 276.144
1023 1024 1025 1 116.182 669.440
1024 1025 1026 1 123.014 418.400
1024 1025 1030 1 117.665 292.880
1025 1026 1027 1 112.146 669.440
1025 1026 1028 1 110.304 292.880
1025 1026 1029 1 109.909 292.880
1026 1025 1030 1 116.950 292.880
1027 1026 1028 1 108.147 292.880
1027 1026 1029 1 107.761 292.880
1028 1026 1029 1 108.464 276.144
1032 1033 1034 1 118.794 669.440
1033 1034 1035 1 123.066 418.400
1033 1034 1039 1 117.297 292.880
1034 1035 1036 1 112.574 669.440
1034 1035 1037 1 109.745 292.880
1034 1035 1038 1 110.254 292.880
1035 1034 1039 1 116.799 292.880
1036 1035 1037 1 107.865 292.880
1036 1035 1038 1 107.980 292.880
1037 1035 1038 1 108.297 276.144
1041 1042 1043 1 115.974 669.440
1042 1043 1044 1 122.748 418.400
1042 1043 1048 1 117.141 292.880
1043 1044 1045 1 112.203 669.440
1043 1044 1046 1 109.799 292.880
1043 1044 1047 1 110.394 292.880
1044 1043 1048 1 116.431 292.880
1045 1044 1046 1 107.812 292.880
1045 1044 1047 1 108.141 292.880
1046 1044 1047 1 108.377 276.144
1050 1051 1052 1 116.182 669.440
1051 1052 1053 1 123.014 418.400
1051 1052 1057 1 117.665 292.880
1052 1053 1054 1 112.146 669.440
1052 1053 1055 1 110.304 292.880
1052 1053 1056 1 109.909 292.880
1053 1052 1057 1 116.950 292.880
1054 1053 1055 1 108.147 292.880
1054 1053 1056 1 107.761 292.880
1055 1053 1056 1 108.464 276.144
1059 1060 1061 1 118.794 669.440
1060 1061 1062 1 123.066 418.400
1060 1061 1066 1 117.297 292.880
1061 1062 1063 1 112.574 669.440
1061 1062 1064 1 109.745 292.880
1061 1062 1065 1 110.254 292.880
1062 1061 1066 1 116.799 292.880
1063 1062 1064 1 107.865 292.880
1063 1062 1065 1 107.980 292.880
1064 1062 1065 1 108.297 276.144
1068 1069 1070 1 115.974 669.440
1069 1070 1071 1 122.748 418.400
1069 1070 1076 1 117.141 292.880
1070 1071 1072 1 112.203 669.440
1070 1071 1074 1 109.799 292.880
1070 1071 1075 1 110.394 292.880
1071 1070 1076 1 116.431 292.880
1071 1072 1073 1 107.831 460.240
1072 1071 1074 1 107.812 292.880
1072 1071 1075 1 108.141 292.880
1074 1071 1075 1 108.377 276.144
1078 1079 1080 1 116.182 669.440
1079 1080 1081 1 123.014 418.400
1079 1080 1085 1 117.665 292.880
1080 1081 1082 1 112.146 669.440
1080 1081 1083 1 110.304 292.880
1080 1081 1084 1 109.909 292.880
1081 1080 1085 1 116.950 292.880
1082 1081 1083 1 108.147 292.880
1082 1081 1084 1 107.761 292.880
1083 1081 1084 1 108.464 276.144
1087 1088 1089 1 118.794 669.440
1088 1089 1090 1 123.066 418.400
1088 1089 1095 1 117.297 292.880
1089 1090 1091 1 112.574 669.440
1089 1090 1093 1 109.745 292.880
1089 1090 1094 1 110.254 292.880
1090 1089 1095 1 116.799 292.880
1090 1091 1092 1 108.806 460.240
1091 1090 1093 1 107.865 292.880
1091 1090 1094 1 107.980 292.880
1093 1090 1094 1 108.297 276.144
1097 1098 1099 1 115.974 669.440
1098 1099 1100 1 122.748 418.400
1098 1099 1104 1 117.141 292.880
1099 1100 1101 1 112.203 669.440
1099 1100 1102 1 109.799 292.880
1099 1100 1103 1 110.394 292.880
1100 1099 1104 1 116.431 292.880
1101 1100 1102 1 107.812 292.880
1101 1100 1103 1 108.141 292.880
1102 1100 1103 1 108.377 276.144
1106 1107 1108 1 116.182 669.440
1107 1108 1109 1 123.014 418.400
1107 1108 1112 1 117.665 292.880
1108 1109 1110 1 110.304 292.880
1108 1109 1111 1 109.909 292.880
1109 1108 1112 1 116.950 292.880
1110 1109 1111 1 108.464 276.144
1114 1115 1116 1 118.794 669.440
1115 1116 1117 1 123.066 418.400
1115 1116 1121 1 117.297 292.880
1116 1117 1118 1 112.574 669.440
1116 1117 1119 1 109.745 292.880
1116 1117 1120 1 110.254 292.880
1117 1116 1121 1 116.799 292.880
1118 1117 1119 1 107.865 292.880
1118 1117 1120 1 107.980 292.880
1119 1117 1120 1 108.297 276.144
1123 1124 1125 1 115.974 669.440
1124 1125 1126 1 122.748 418.400
1124 1125 1130 1 117.141 292.880
1125 1126 1127 1 112.203 669.440
1125 1126 1128 1 109.799 292.880
1125 1126 1129 1 110.394 292.880
1126 1125 1130 1 116.431 292.880
1127 1126 1128 1 107.812 292.880
1127 1126 1129 1 108.141 292.880
1128 1126 1129 1 108.377 276.144
1132 1133 1134 1 116.182 669.440
1133 1134 1135 1 123.014 418.400
1133 1134 1139 1 117.665 292.880
1134 1135 1136 1 112.146 669.440
1134 1135 1137 1 110.304 292.880
1134 1135 1138 1 109.909 292.880
1135 1134 1139 1 116.950 292.880
1136 1135 1137 1 108.147 292.880
1136 1135 1138 1 107.761 292.880
1137 1135 1138 1 108.464 276.144
1141 1142 1143 1 118.794 669.440
1142 1143 1144 1 123.066 418.400
1142 1143 1148 1 117.297 292.880
1143 1144 1145 1 112.574 669.440
1143 1144 1146 1 109.745 292.880
1143 1144 1147 1 110.254 292.880
1144 1143 1148 1 116.799 292.880
1145 1144 1146 1 107.865 292.880
1145 1144 1147 1 107.980 292.880
1146 1144 1147 1 108.297 276.144
1150 1151 1152 1 115.974 669.440
1151 1152 1153 1 122.748 418.400
1151 1152 1157 1 117.141 292.880
1152 1153 1154 1 112.203 669.440
1152 1153 1155 1 109.799 292.880
1152 1153 1156 1 110.394 292.880
1153 1152 1157 1 116.431 292.880
1154 1153 1155 1 107.812 292.880
1154 1153 1156 1 108.141 292.880
1155 1153 1156 1 108.377 276.144
1159 1160 1161 1 116.182 669.440
1160 1161 1162 1 123.014 418.400
1160 1161 1166 1 117.665 292.880
1161 1162 1163 1 112.146 669.440
1161 1162 1164 1 110.304 292.880
1161 1162 1165 1 109.909 292.880
1162 1161 1166 1 116.950 292.880
1163 1162 1164 1 108.147 292.880
1163 1162 1165 1 107.761 292.880
1164 1162 1165 1 108.464 276.144
1168 1169 1170 1 118.794 669.440
1169 1170 1171 1 123.066 418.400
1169 1170 1175 1 117.297 292.880
1170 1171 1172 1 112.574 669.440
1170 1171 1173 1 109.745 292.880
1170 1171 1174 1 110.254 292.880
1171 1170 1175 1 116.799 292.880
1172 1171 1173 1 107.865 292.880
1172 1171 1174 1 107.980 292.880
1173 1171 1174 1 108.297 276.144
1177 1178 1179 1 115.974 669.440
1178 1179 1180 1 122.748 418.400
1178 1179 1184 1 117.141 292.880
1179 1180 1181 1 112.203 669.440
1179 1180 1182 1 109.799 292.880
1179 1180 1183 1 110.394 292.880
1180 1179 1184 1 116.431 292.880
1181 1180 1182 1 107.812 292.880
1181 1180 1183 1 108.141 292.880
1182 1180 1183 1 108.377 276.144
1186 1187 1188 1 116.182 669.440
1187 1188 1189 1 123.014 418.400
1187 1188 1193 1 117.665 292.880
1188 1189 1190 1 112.146 669.440
1188 1189 1191 1 110.304 292.880
1188 1189 1192 1 109.909 292.880
1189 1188 1193 1 116.950 292.880
1190 1189 1191 1 108.147 292.880
1190 1189 1192 1 107.761 292.880
1191 1189 1192 1 108.464 276.144
1195 1196 1197 1 118.794 669.440
1196 1197 1198 1 123.066 418.400
1196 1197 1202 1 117.297 292.880
1197 1198 1199 1 112.574 669.440
1197 1198 1200 1 109.745 292.880
1197 1198 1201 1 110.254 292.880
1198 1197 1202 1 116.799 292.880
1199 1198 1200 1 107.865 292.880
1199 1198 1201 1 107.980 292.880
1200 1198 1201 1 108.297 276.144
1204 1205 1206 1 115.974 669.440
1205 1206 1207 1 122.748 418.400
1205 1206 1210 1 117.141 292.880
1206 1207 1208 1 109.799 292.880
1206 1207 1209 1 110.394 292.880
1207 1206 1210 1 116.431 292.880
1208 1207 1209 1 108.377 276.144
1212 1213 1214 1 116.182 669.440
1213 1214 1215 1 123.014 418.400
1213 1214 1219 1 117.665 292.880
1214 1215 1216 1 112.146 669.440
1214 1215 1217 1 110.304 292.880
1214 1215 1218 1 109.909 292.880
1215 1214 1219 1 116.950 292.880
1216 1215 1217 1 108.147 292.880
1216 1215 1218 1 107.761 292.880
1217 1215 1218 1 108.464 276.144
1221 1222 1223 1 118.794 669.440
1222 1223 1224 1 123.066 418.400
1222 1223 1228 1 117.297 292.880
1223 1224 1225 1 112.574 669.440
1223 1224 1226 1 109.745 292.880
1223 1224 1227 1 110.254 292.880
1224 1223 1228 1 116.799 292.880
1225 1224 1226 1 107.865 292.880
1225 1224 1227 1 107.980 292.880
1226 1224 1227 1 108.297 276.144
1230 1231 1232 1 115.974 669.440
1231 1232 1233 1 122.748 418.400
1231 1232 1237 1 117.141 292.880
1232 1233 1234 1 112.203 669.440
1232 1233 1235 1 109.799 292.880
1232 1233 1236 1 110.394 292.880
1233 1232 1237 1 116.431 292.880
1234 1233 1235 1 107.812 292.880
1234 1233 1236 1 108.141 292.880
1235 1233 1236 1 108.377 276.144
1239 1240 1241 1 116.182 669.440
1240 1241 1242 1 123.014 418.400
1240 1241 1246 1 117.665 292.880
1241 1242 1243 1 112.146 669.440
1241 1242 1244 1 110.304 292.880
1241 1242 1245 1 109.909 292.880
1242 1241 1246 1 116.950 292.880
1243 1242 1244 1 108.147 292.880
1243 1242 1245 1 107.761 292.880
1244 1242 1245 1 108.464 276.144
1248 1249 1250 1 118.794 669.440
1249 1250 1251 1 123.066 418.400
1249 1250 1255 1 117.297 292.880
1250 1251 1252 1 112.574 669.440
1250 1251 1253 1 109.745 292.880
1250 1251 1254 1 110.254 292.880
1251 1250 1255 1 116.799 292.880
1252 1251 1253 1 107.865 292.880
1252 1251 1254 1 107.980 292.880
1253 1251 1254 1 108.297 276.144
1257 1258 1259 1 115.974 669.440
1258 1259 1260 1 122.748 418.400
1258 1259 1263 1 117.141 292.880
1259 1260 1261 1 109.799 292.880
1259 1260 1262 1 110.394 292.880
1260 1259 1263 1 116.431 292.880
1261 1260 1262 1 108.377 276.144
1265 1266 1267 1 116.182 669.440
1266 1267 1268 1 123.014 418.400
1266 1267 1272 1 117.665 292.880
1267 1268 1269 1 112.146 669.440
1267 1268 1270 1 110.304 292.880
1267 1268 1271 1 109.909 292.880
1268 1267 1272 1 116.950 292.880
1269 1268 1270 1 108.147 292.880
1269 1268 1271 1 107.761 292.880
1270 1268 1271 1 108.464 276.144
1274 1275 1276 1 118.794 669.440
1275 1276 1277 1 123.066 418.400
1275 1276 1282 1 117.297 292.880
1276 1277 1278 1 112.574 669.440
1276 1277 1280 1 109.745 292.880
1276 1277 1281 1 110.254 292.880
1277 1276 1282 1 116.799 292.880
1277 1278 1279 1 108.806 460.240
1278 1277 1280 1 107.865 292.880
1278 1277 1281 1 107.980 292.880
1280 1277 1281 1 108.297 276.144
1284 1285 1286 1 115.974 669.440
1285 1286 1287 1 122.748 418.400
1285 1286 1291 1 117.141 292.880
1286 1287 1288 1 112.203 669.440
1286 1287 1289 1 109.799 292.880
1286 1287 1290 1 110.394 292.880
1287 1286 1291 1 116.431 292.880
1288 1287 1289 1 107.812 292.880
1288 1287 1290 1 108.141 292.880
1289 1287 1290 1 108.377 276.144
1293 1294 1295 1 116.182 669.440
1294 1295 1296 1 123.014 418.400
1294 1295 1300 1 117.665 292.880
1295 1296 1297 1 112.146 669.440
1295 1296 1298 1 110.304 292.880
1295 1296 1299 1 109.909 292.880
1296 1295 1300 1 116.950 292.880
1297 1296 1298 1 108.147 292.880
1297 1296 1299 1 107.761 292.880
1298 1296 1299 1 108.464 276.144
1302 1303 1304 1 118.794 669.440
1303 1304 1305 1 123.066 418.400
1303 1304 1309 1 117.297 292.880
1304 1305 1306 1 112.574 669.440
1304 1305 1307 1 109.745 292.880
1304 1305 1308 1 110.254 292.880
1305 1304 1309 1 116.799 292.880
1306 1305 1307 1 107.865 292.880
1306 1305 1308 1 107.980 292.880
1307 1305 1308 1 108.297 276.144
1311 1312 1313 1 115.974 669.440
1312 1313 1314 1 122.748 418.400
1312 1313 1318 1 117.141 292.880
1313 1314 1315 1 112.203 669.440
1313 1314 1316 1 109.799 292.880
1313 1314 1317 1 110.394 292.880
1314 1313 1318 1 116.431 292.880
1315 1314 1316 1 107.812 292.880
1315 1314 1317 1 108.141 292.880
1316 1314 1317 1 108.377 276.144
1320 1321 1322 1 116.182 669.440
1321 1322 1323 1 123.014 418.400
1321 1322 1327 1 117.665 292.880
1322 1323 1324 1 112.146 669.440
1322 1323 1325 1 110.304 292.880
1322 1323 1326 1 109.909 292.880
1323 1322 1327 1 116.950 292.880
1324 1323 1325 1 108.147 292.880
1324 1323 1326 1 107.761 292.880
1325 1323 1326 1 108.464 276.144
1329 1330 1331 1 118.794 669.440
1330 1331 1332 1 123.066 418.400
1330 1331 1336 1 117.297 292.880
1331 1332 1333 1 112.574 669.440
1331 1332 1334 1 109.745 292.880
1331 1332 1335 1 110.254 292.880
1332 1331 1336 1 116.799 292.880
1333 1332 1334 1 107.865 292.880
1333 1332 1335 1 107.980 292.880
1334 1332 1335 1 108.297 276.144
1338 1339 1340 1 115.974 669.440
1339 1340 1341 1 122.748 418.400
1339 1340 1345 1 117.141 292.880
1340 1341 1342 1 112.203 669.440
1340 1341 1343 1 109.799 292.880
1340 1341 1344 1 110.394 292.880
1341 1340 1345 1 116.431 292.880
1342 1341 1343 1 107.812 292.880
1342 1341 1344 1 108.141 292.880
1343 1341 1344 1 108.377 276.144
1347 1348 1349 1 116.182 669.440
1348 1349 1350 1 123.014 418.400
1348 1349 1354 1 117.665 292.880
1349 1350 1351 1 112.146 669.440
1349 1350 1352 1 110.304 292.880
1349 1350 1353 1 109.909 292.880
1350 1349 1354 1 116.950 292.880
1351 1350 1352 1 108.147 292.880
1351 1350 1353 1 107.761 292.880
1352 1350 1353 1 108.464 276.144
1356 1357 1358 1 118.794 669.440
1357 1358 1359 1 123.066 418.400
1357 1358 1364 1 117.297 292.880
1358 1359 1360 1 112.574 669.440
1358 1359 1362 1 109.745 292.880
1358 1359 1363 1 110.254 292.880
1359 1358 1364 1 116.799 292.880
1359 1360 1361 1 108.806 460.240
1360 1359 1362 1 107.865 292.880
1360 1359 1363 1 107.980 292.880
1362 1359 1363 1 108.297 276.144
1366 1367 1368 1 115.974 669.440
1367 1368 1369 1 122.748 418.400
1367 1368 1373 1 117.141 292.880
1368 1369 1370 1 112.203 669.440
1368 1369 1371 1 109.799 292.880
1368 1369 1372 1 110.394 292.880
1369 1368 1373 1 116.431 292.880
1370 1369 1371 1 107.812 292.880
1370 1369 1372 1 108.141 292.880
1371 1369 1372 1 108.377 276.144
1375 1376 1377 1 116.182 669.440
1376 1377 1378 1 123.014 418.400
1376 1377 1382 1 117.665 292.880
1377 1378 1379 1 112.146 669.440
1377 1378 1380 1 110.304 292.880
1377 1378 1381 1 109.909 292.880
1378 1377 1382 1 116.950 292.880
1379 1378 1380 1 108.147 292.880
1379 1378 1381 1 107.761 292.880
1380 1378 1381 1 108.464 276.144
1384 1385 1386 1 118.794 669.440
1385 1386 1387 1 123.066 418.400
1385 1386 1391 1 117.297 292.880
1386 1387 1388 1 112.574 669.440
1386 1387 1389 1 109.745 292.880
1386 1387 1390 1 110.254 292.880
1387 1386 1391 1 116.799 292.880
1388 1387 1389 1 107.865 292.880
1388 1387 1390 1 107.980 292.880
1389 1387 1390 1 108.297 276.144
1393 1394 1395 1 115.974 669.440
1394 1395 1396 1 122.748 418.400
1394 1395 1400 1 117.141 292.880
1395 1396 1397 1 112.203 669.440
1395 1396 1398 1 109.799 292.880
1395 1396 1399 1 110.394 292.880
1396 1395 1400 1 116.431 292.880
1397 1396 1398 1 107.812 292.880
1397 1396 1399 1 108.141 292.880
1398 1396 1399 1 108.377 276.144
1402 1403 1404 1 116.182 669.440
1403 1404 1405 1 123.014 418.400
1403 1404 1410 1 117.665 292.880
1404 1405 1406 1 112.146 669.440
1404 1405 1408 1 110.304 292.880
1404 1405 1409 1 109.909 292.880
1405 1404 1410 1 116.950 292.880
1405 1406 1407 1 107.577 460.240
1406 1405 1408 1 108.147 292.880
1406 1405 1409 1 107.761 292.880
1408 1405 1409 1 108.464 276.144
1412 1413 1414 1 118.794 669.440
1413 1414 1415 1 123.066 418.400
1413 1414 1419 1 117.297 292.880
1414 1415 1416 1 112.574 669.440
1414 1415 1417 1 109.745 292.880
1414 1415 1418 1 110.254 292.880
1415 1414 1419 1 116.799 292.880
1416 1415 1417 1 107.865 292.880
1416 1415 1418 1 107.980 292.880
1417 1415 1418 1 108.297 276.144
1421 1422 1423 1 115.974 669.440
1422 1423 1424 1 122.748 418.400
1422 1423 1427 1 117.141 292.880
1423 1424 1425 1 109.799 292.880
1423 1424 1426 1 110.394 292.880
1424 1423 1427 1 116.431 292.880
1425 1424 1426 1 108.377 276.144
1429 1430 1431 1 116.182 669.440
1430 1431 1432 1 123.014 418.400
1430 1431 1436 1 117.665 292.880
1431 1432 1433 1 112.146 669.440
1431 1432 1434 1 110.304 292.880
1431 1432 1435 1 109.909 292.880
1432 1431 1436 1 116.950 292.880
1433 1432 1434 1 108.147 292.880
1433 1432 1435 1 107.761 292.880
1434 1432 1435 1 108.464 276.144
1438 1439 1440 1 118.794 669.440
1439 1440 1441 1 123.066 418.400
1439 1440 1445 1 117.297 292.880
1440 1441 1442 1 112.574 669.440
1440 1441 1443 1 109.745 292.880
1440 1441 1444 1 110.254 292.880
1441 1440 1445 1 116.799 292.880
1442 1441 1443 1 107.865 292.880
1442 1441 1444 1 107.980 292.880
1443 1441 1444 1 108.297 276.144
1447 1448 1449 1 115.974 669.440
1448 1449 1450 1 122.748 418.400
1448 1449 1454 1 117.141 292.880
1449 1450 1451 1 112.203 669.440
1449 1450 1452 1 109.799 292.880
1449 1450 1453 1 110.394 292.880
1450 1449 1454 1 116.431 292.880
1451 1450 1452 1 107.812 292.880
1451 1450 1453 1 108.141 292.880
1452 1450 1453 1 108.377 276.144
1456 1457 1458 1 116.182 669.440
1457 1458 1459 1 123.014 418.400
1457 1458 1463 1 117.665 292.880
1458 1459 1460 1 112.146 669.440
1458 1459 1461 1 110.304 292.880
1458 1459 1462 1 109.909 292.880
1459 1458 1463 1 116.950 292.880
1460 1459 1461 1 108.147 292.880
1460 1459 1462 1 107.761 292.880
1461 1459 1462 1 108.464 276.144
1465 1466 1467 1 118.794 669.440
1466 1467 1468 1 123.066 418.400
1466 1467 1472 1 117.297 292.880
1467 1468 1469 1 112.574 669.440
1467 1468 1470 1 109.745 292.880
1467 1468 1471 1 110.254 292.880
1468 1467 1472 1 116.799 292.880
1469 1468 1470 1 107.865 292.880
1469 1468 1471 1 107.980 292.880
1470 1468 1471 1 108.297 276.144
1474 1475 1476 1 115.974 669.440
1475 1476 1477 1 122.748 418.400
1475 1476 1481 1 117.141 292.880
1476 1477 1478 1 112.203 669.440
1476 1477 1479 1 109.799 292.880
1476 1477 1480 1 110.394 292.880
1477 1476 1481 1 116.431 292.880
1478 1477 1479 1 107.812 292.880
1478 1477 1480 1 108.141 292.880
1479 1477 1480 1 108.377 276.144
1483 1484 1485 1 116.182 669.440
1484 1485 1486 1 123.014 418.400
1484 1485 1490 1 117.665 292.880
1485 1486 1487 1 112.146 669.440
1485 1486 1488 1 110.304 292.880
1485 1486 1489 1 109.909 292.880
1486 1485 1490 1 116.950 292.880
1487 1486 1488 1 108.147 292.880
1487 1486 1489 1 107.761 292.880
1488 1486 1489 1 108.464 276.144
1492 1493 1494 1 118.794 669.440
1493 1494 1495 1 123.066 418.400
1493 1494 1499 1 117.297 292.880
1494 1495 1496 1 112.574 669.440
1494 1495 1497 1 109.745 292.880
1494 1495 1498 1 110.254 292.880
1495 1494 1499 1 116.799 292.880
1496 1495 1497 1 107.865 292.880
1496 1495 1498 1 107.980 292.880
1497 1495 1498 1 108.297 276.144
1501 1502 1503 1 115.974 669.440
1502 1503 1504 1 122.748 418.400
1502 1503 1508 1 117.141 292.880
1503 1504 1505 1 112.203 669.440
1503 1504 1506 1 109.799 292.880
1503 1504 1507 1 110.394 292.880
1504 1503 1508 1 116.431 292.880
1505 1504 1506 1 107.812 292.880
1505 1504 1507 1 108.141 292.880
1506 1504 1507 1 108.377 276.144
1510 1511 1512 1 116.182 669.440
1511 1512 1513 1 123.014 418.400
1511 1512 1517 1 117.665 292.880
1512 1513 1514 1 112.146 669.440
1512 1513 1515 1 110.304 292.880
1512 1513 1516 1 109.909 292.880
1513 1512 1517 1 116.950 292.880
1514 1513 1515 1 108.147 292.880
1514 1513 1516 1 107.761 292.880
1515 1513 1516 1 108.464 276.144
1519 1520 1521 1 118.794 669.440
1520 1521 1522 1 123.066 418.400
1520 1521 1526 1 117.297 292.880
1521 1522 1523 1 112.574 669.440
1521 1522 1524 1 109.745 292.880
1521 1522 1525 1 110.254 292.880
1522 1521 1526 1 116.799 292.880
1523 1522 1524 1 107.865 292.880
1523 1522 1525 1 107.980 292.880
1524 1522 1525 1 108.297 276.144
1528 1529 1530 1 115.974 669.440
1529 1530 1531 1 122.748 418.400
1529 1530 1535 1 117.141 292.880
1530 1531 1532 1 112.203 669.440
1530 1531 1533 1 109.799 292.880
1530 1531 1534 1 110.394 292.880
1531 1530 1535 1 116.431 292.880
1532 1531 1533 1 107.812 292.880
1532 1531 1534 1 108.141 292.880
1533 1531 1534 1 108.377 276.144
1537 1538 1539 1 116.182 669.440
1538 1539 1540 1 123.014 418.400
1538 1539 1544 1 117.665 292.880
1539 1540 1541 1 112.146 669.440
1539 1540 1542 1 110.304 292.880
1539 1540 1543 1 109.909 292.880
1540 1539 1544 1 116.950 292.880
1541 1540 1542 1 108.147 292.880
1541 1540 1543 1 107.761 292.880
1542 1540 1543 1 108.464 276.144
1546 1547 1548 1 118.794 669.440
1547 1548 1549 1 123.066 418.400
1547 1548 1553 1 117.297 292.880
1548 1549 1550 1 112.574 669.440
1548 1549 1551 1 109.745 292.880
1548 1549 1552 1 110.254 292.880
1549 1548 1553 1 116.799 292.880
1550 1549 1551 1 107.865 292.880
1550 1549 1552 1 107.980 292.880
1551 1549 1552 1 108.297 276.144
1555 1556 1557 1 115.974 669.440
1556 1557 1558 1 122.748 418.400
1556 1557 1561 1 117.141 292.880
1557 1558 1559 1 109.799 292.880
1557 1558 1560 1 110.394 292.880
1558 1557 1561 1 116.431 292.880
1559 1558 1560 1 108.377 276.144
1563 1564 1565 1 116.182 669.440
1564 1565 1566 1 123.014 418.400
1564 1565 1570 1 117.665 292.880
1565 1566 1567 1 112.146 669.440
1565 1566 1568 1 110.304 292.880
1565 1566 1569 1 109.909 292.880
1566 1565 1570 1 116.950 292.880
1567 1566 1568 1 108.147 292.880
1567 1566 1569 1 107.761 292.880
1568 1566 1569 1 108.464 276.144
1572 1573 1574 1 118.794 669.440
1573 1574 1575 1 123.066 418.400
1573 1574 1579 1 117.297 292.880
1574 1575 1576 1 112.574 669.440
1574 1575 1577 1 109.745 292.880
1574 1575 1578 1 110.254 292.880
1575 1574 1579 1 116.799 292.880
1576 1575 1577 1 107.865 292.880
1576 1575 1578 1 107.980 292.880
1577 1575 1578 1 108.297 276.144
1581 1582 1583 1 115.974 669.440
1582 1583 1584 1 122.748 418.400
1582 1583 1588 1 117.141 292.880
1583 1584 1585 1 112.203 669.440
1583 1584 1586 1 109.799 292.880
1583 1584 1587 1 110.394 292.880
1584 1583 1588 1 116.431 292.880
1585 1584 1586 1 107.812 292.880
1585 1584 1587 1 108.141 292.880
1586 1584 1587 1 108.377 276.144
1590 1591 1592 1 116.182 669.440
1591 1592 1593 1 123.014 418.400
1591 1592 1597 1 117.665 292.880
1592 1593 1594 1 112.146 669.440
1592 1593 1595 1 110.304 292.880
1592 1593 1596 1 109.909 292.880
1593 1592 1597 1 116.950 292.880
1594 1593 1595 1 108.147 292.880
1594 1593 1596 1 107.761 292.880
1595 1593 1596 1 108.464 276.144
1599 1600 1601 1 118.794 669.440
1600 1601 1602 1 123.066 418.400
1600 1601 1606 1 117.297 292.880
1601 1602 1603 1 112.574 669.440
1601 1602 1604 1 109.745 292.880
1601 1602 1605 1 110.254 292.880
1602 1601 1606 1 116.799 292.880
1603 1602 1604 1 107.865 292.880
1603 1602 1605 1 107.980 292.880
1604 1602 1605 1 108.297 276.144
1608 1609 1610 1 115.974 669.440
1609 1610 1611 1 122.748 418.400
1609 1610 1615 1 117.141 292.880
1610 1611 1612 1 112.203 669.440
1610 1611 1613 1 109.799 292.880
1610 1611 1614 1 110.394 292.880
1611 1610 1615 1 116.431 292.880
1612 1611 1613 1 107.812 292.880
1612 1611 1614 1 108.141 292.880
1613 1611 1614 1 108.377 276.144
1617 1618 1619 1 116.182 669.440
1618 1619 1620 1 123.014 418.400
1618 1619 1624 1 117.665 292.880
1619 1620 1621 1 112.146 669.440
1619 1620 1622 1 110.304 292.880
1619 1620 1623 1 109.909 292.880
1620 1619 1624 1 116.950 292.880
1621 1620 1622 1 108.147 292.880
1621 1620 1623 1 107.761 292.880
1622 1620 1623 1 108.464 276.144
1626 1627 1628 1 118.794 669.440
1627 1628 1629 1 123.066 418.400
1627 1628 1633 1 117.297 292.880
1628 1629 1630 1 112.574 669.440
1628 1629 1631 1 109.745 292.880
1628 1629 1632 1 110.254 292.880
1629 1628 1633 1 116.799 292.880
1630 1629 1631 1 107.865 292.880
1630 1629 1632 1 107.980 292.880
1631 1629 1632 1 108.297 276.144
1635 1636 1637 1 115.974 669.440
1636 1637 1638 1 122.748 418.400
1636 1637 1642 1 117.141 292.880
1637 1638 1639 1 112.203 669.440
1637 1638 1640 1 109.799 292.880
1637 1638 1641 1 110.394 292.880
1638 1637 1642 1 116.431 292.880
1639 1638 1640 1 107.812 292.880
1639 1638 1641 1 108.141 292.880
1640 1638 1641 1 108.377 276.144
1644 1645 1646 1 116.182 669.440
1645 1646 1647 1 123.014 418.400
1645 1646 1652 1 117.665 292.880
1646 1647 1648 1 112.146 669.440
1646 1647 1650 1 110.304 292.880
1646 1647 1651 1 109.909 292.880
1647 1646 1652 1 116.950 292.880
1647 1648 1649 1 107.577 460.240
1648 1647 1650 1 108.147 292.880
1648 1647 1651 1 107.761 292.880
1650 1647 1651 1 108.464 276.144
1654 1655 1656 1 118.794 669.440
1655 1656 1657 1 123.066 418.400
1655 1656 1661 1 117.297 292.880
1656 1657 1658 1 112.574 669.440
1656 1657 1659 1 109.745 292.880
1656 1657 1660 1 110.254 292.880
1657 1656 1661 1 116.799 292.880
1658 1657 1659 1 107.865 292.880
1658 1657 1660 1 107.980 292.880
1659 1657 1660 1 108.297 276.144
1663 1664 1665 1 115.974 669.440
1664 1665 1666 1 122.748 418.400
1664 1665 1670 1 117.141 292.880
1665 1666 1667 1 112.203 669.440
1665 1666 1668 1 109.799 292.880
1665 1666 1669 1 110.394 292.880
1666 1665 1670 1 116.431 292.880
1667 1666 1668 1 107.812 292.880
1667 1666 1669 1 108.141 292.880
1668 1666 1669 1 108.377 276.144
1672 1673 1674 1 116.182 669.440
1673 1674 1675 1 123.014 418.400
1673 1674 1678 1 117.665 292.880
1674 1675 1676 1 110.304 292.880
1674 1675 1677 1 109.909 292.880
1675 1674 1678 1 116.950 292.880
1676 1675 1677 1 108.464 276.144
1680 1681 1682 1 118.794 669.440
1681 1682 1683 1 123.066 418.400
1681 1682 1687 1 117.297 292.880
1682 1683 1684 1 112.574 669.440
1682 1683 1685 1 109.745 292.880
1682 1683 1686 1 110.254 292.880
1683 1682 1687 1 116.799 292.880
1684 1683 1685 1 107.865 292.880
1684 1683 1686 1 107.980 292.880
1685 1683 1686 1 108.297 276.144
1689 1690 1691 1 115.974 669.440
1690 1691 1692 1 122.748 418.400
1690 1691 1696 1 117.141 292.880
1691 1692 1693 1 112.203 669.440
1691 1692 1694 1 109.799 292.880
1691 1692 1695 1 110.394 292.880
1692 1691 1696 1 116.431 292.880
1693 1692 1694 1 107.812 292.880
1693 1692 1695 1 108.141 292.880
1694 1692 1695 1 108.377 276.144
1698 1699 1700 1 116.182 669.440
1699 1700 1701 1 123.014 418.400
1699 1700 1704 1 117.665 292.880
1700 1701 1702 1 110.304 292.880
1700 1701 1703 1 109.909 292.880
1701 1700 1704 1 116.950 292.880
1702 1701 1703 1 108.464 276.144
1706 1707 1708 1 118.794 669.440
1707 1708 1709 1 123.066 418.400
1707 1708 1712 1 117.297 292.880
1708 1709 1710 1 109.745 292.880
1708 1709 1711 1 110.254 292.880
1709 1708 1712 1 116.799 292.880
1710 1709 1711 1 108.297 276.144
1714 1715 1716 1 115.974 669.440
1715 1716 1717 1 122.748 418.400
1715 1716 1721 1 117.141 292.880
1716 1717 1718 1 112.203 669.440
1716 1717 1719 1 109.799 292.880
1716 1717 1720 1 110.394 292.880
1717 1716 1721 1 116.431 292.880
1718 1717 1719 1 107.812 292.880
1718 1717 1720 1 108.141 292.880
1719 1717 1720 1 108.377 276.144
1723 1724 1725 1 116.182 669.440
1724 1725 1726 1 123.014 418.400
1724 1725 1730 1 117.665 292.880
1725 1726 1727 1 112.146 669.440
1725 1726 1728 1 110.304 292.880
1725 1726 1729 1 109.909 292.880
1726 1725 1730 1 116.950 292.880
1727 1726 1728 1 108.147 292.880
1727 1726 1729 1 107.761 292.880
1728 1726 1729 1 108.464 276.144
1732 1733 1734 1 118.794 669.440
1733 1734 1735 1 123.066 418.400
1733 1734 1739 1 117.297 292.880
1734 1735 1736 1 112.574 669.440
1734 1735 1737 1 109.745 292.880
1734 1735 1738 1 110.254 292.880
1735 1734 1739 1 116.799 292.880
1736 1735 1737 1 107.865 292.880
1736 1735 1738 1 107.980 292.880
1737 1735 1738 1 108.297 276.144
1741 1742 1743 1 115.974 669.440
1742 1743 1744 1 122.748 418.400
1742 1743 1748 1 117.141 292.880
1743 1744 1745 1 112.203 669.440
1743 1744 1746 1 109.799 292.880
1743 1744 1747 1 110.394 292.880
1744 1743 1748 1 116.431 292.880
1745 1744 1746 1 107.812 292.880
1745 1744 1747 1 108.141 292.880
1746 1744 1747 1 108.377 276.144
1750 1751 1752 1 116.182 669.440
1751 1752 1753 1 123.014 418.400
1751 1752 1757 1 117.665 292.880
1752 1753 1754 1 112.146 669.440
1752 1753 1755 1 110.304 292.880
1752 1753 1756 1 109.909 292.880
1753 1752 1757 1 116.950 292.880
1754 1753 1755 1 108.147 292.880
1754 1753 1756 1 107.761 292.880
1755 1753 1756 1 108.464 276.144
1759 1760 1761 1 118.794 669.440
1760 1761 1762 1 123.066 418.400
1760 1761 1767 1 117.297 292.880
1761 1762 1763 1 112.574 669.440
1761 1762 1765 1 109.745 292.880
1761 1762 1766 1 110.254 292.880
1762 1761 1767 1 116.799 292.880
1762 1763 1764 1 108.806 460.240
1763 1762 1765 1 107.865 292.880
1763 1762 1766 1 107.980 292.880
1765 1762 1766 1 108.297 276.144
1769 1770 1771 1 115.974 669.440
1770 1771 1772 1 122.748 418.400
1770 1771 1776 1 117.141 292.880
1771 1772 1773 1 112.203 669.440
1771 1772 1774 1 109.799 292.880
1771 1772 1775 1 110.394 292.880
1772 1771 1776 1 116.431 292.880
1773 1772 1774 1 107.812 292.880
1773 1772 1775 1 108.141 292.880
1774 1772 1775 1 108.377 276.144
1778 1779 1780 1 116.182 669.440
1779 1780 1781 1 123.014 418.400
1779 1780 1785 1 117.665 292.880
1780 1781 1782 1 112.146 669.440
1780 1781 1783 1 110.304 292.880
1780 1781 1784 1 109.909 292.880
1781 1780 1785 1 116.950 292.880
1782 1781 1783 1 108.147 292.880
1782 1781 1784 1 107.761 292.880
1783 1781 1784 1 108.464 276.144
1787 1788 1789 1 118.794 669.440
1788 1789 1790 1 123.066 418.400
1788 1789 1794 1 117.297 292.880
1789 1790 1791 1 112.574 669.440
1789 1790 1792 1 109.745 292.880
1789 1790 1793 1 110.254 292.880
1790 1789 1794 1 116.799 292.880
1791 1790 1792 1 107.865 292.880
1791 1790 1793 1 107.980 292.880
1792 1790 1793 1 108.297 276.144
1796 1797 1798 1 115.974 669.440
1797 1798 1799 1 122.748 418.400
1797 1798 1803 1 117.141 292.880
1798 1799 1800 1 112.203 669.440
1798 1799 1801 1 109.799 292.880
1798 1799 1802 1 110.394 292.880
1799 1798 1803 1 116.431 292.880
1800 1799 1801 1 107.812 292.880
1800 1799 1802 1 108.141 292.880
1801 1799 1802 1 108.377 276.144
1805 1806 1807 1 116.182 669.440
1806 1807 1808 1 123.014 418.400
1806 1807 1812 1 117.665 292.880
1807 1808 1809 1 112.146 669.440
1807 1808 1810 1 110.304 292.880
1807 1808 1811 1 109.909 292.880
1808 1807 1812 1 116.950 292.880
1809 1808 1810 1 108.147 292.880
1809 1808 1811 1 107.761 292.880
1810 1808 1811 1 108.464 276.144
1814 1815 1816 1 118.794 669.440
1815 1816 1817 1 123.066 418.400
1815 1816 1821 1 117.297 292.880
1816 1817 1818 1 112.574 669.440
1816 1817 1819 1 109.745 292.880
1816 1817 1820 1 110.254 292.880
1817 1816 1821 1 116.799 292.880
1818 1817 1819 1 107.865 292.880
1818 1817 1820 1 107.980 292.880
1819 1817 1820 1 108.297 276.144
1823 1824 1825 1 115.974 669.440
1824 1825 1826 1 122.748 418.400
1824 1825 1830 1 117.141 292.880
1825 1826 1827 1 112.203 669.440
1825 1826 1828 1 109.799 292.880
1825 1826 1829 1 110.394 292.880
1826 1825 1830 1 116.431 292.880
1827 1826 1828 1 107.812 292.880
1827 1826 1829 1 108.141 292.880
1828 1826 1829 1 108.377 276.144
1832 1833 1834 1 116.182 669.440
1833 1834 1835 1 123.014 418.400
1833 1834 1840 1 117.665 292.880
1834 1835 1836 1 112.146 669.440
1834 1835 1838 1 110.304 292.880
1834 1835 1839 1 109.909 292.880
1835 1834 1840 1 116.950 292.880
1835 1836 1837 1 107.577 460.240
1836 1835 1838 1 108.147 292.880
1836 1835 1839 1 107.761 292.880
1838 1835 1839 1 108.464 276.144
1842 1843 1844 1 118.794 669.440
1843 1844 1845 1 123.066 418.400
1843 1844 1849 1 117.297 292.880
1844 1845 1846 1 112.574 669.440
1844 1845 1847 1 109.745 292.880
1844 1845 1848 1 110.254 292.880
1845 1844 1849 1 116.799 292.880
1846 1845 1847 1 107.865 292.880
1846 1845 1848 1 107.980 292.880
1847 1845 1848 1 108.297 276.144
1851 1852 1853 1 115.974 669.440
1852 1853 1854 1 122.748 418.400
1852 1853 1857 1 117.141 292.880
1853 1854 1855 1 109.799 292.880
1853 1854 1856 1 110.394 292.880
1854 1853 1857 1 116.431 292.880
1855 1854 1856 1 108.377 276.144
1859 1860 1861 1 116.182 669.440
1860 1861 1862 1 123.014 418.400
1860 1861 1866 1 117.665 292.880
1861 1862 1863 1 112.146 669.440
1861 1862 1864 1 110.304 292.880
1861 1862 1865 1 109.909 292.880
1862 1861 1866 1 116.950 292.880
1863 1862 1864 1 108.147 292.880
1863 1862 1865 1 107.761 292.880
1864 1862 1865 1 108.464 276.144
1868 1869 1870 1 118.794 669.440
1869 1870 1871 1 123.066 418.400
1869 1870 1875 1 117.297 292.880
1870 1871 1872 1 112.574 669.440
1870 1871 1873 1 109.745 292.880
1870 1871 1874 1 110.254 292.880
1871 1870 1875 1 116.799 292.880
1872 1871 1873 1 107.865 292.880
1872 1871 1874 1 107.980 292.880
1873 1871 1874 1 108.297 276.144
1877 1878 1879 1 115.974 669.440
1878 1879 1880 1 122.748 418.400
1878 1879 1884 1 117.141 292.880
1879 1880 1881 1 112.203 669.440
1879 1880 1882 1 109.799 292.880
1879 1880 1883 1 110.394 292.880
1880 1879 1884 1 116.431 292.880
1881 1880 1882 1 107.812 292.880
1881 1880 1883 1 108.141 292.880
1882 1880 1883 1 108.377 276.144
1886 1887 1888 1 116.182 669.440
1887 1888 1889 1 123.014 418.400
1887 1888 1893 1 117.665 292.880
1888 1889 1890 1 112.146 669.440
1888 1889 1891 1 110.304 292.880
1888 1889 1892 1 109.909 292.880
1889 1888 1893 1 116.950 292.880
1890 1889 1891 1 108.147 292.880
1890 1889 1892 1 107.761 292.880
1891 1889 1892 1 108.464 276.144
1895 1896 1897 1 118.794 669.440
1896 1897 1898 1 123.066 418.400
1896 1897 1902 1 117.297 292.880
1897 1898 1899 1 112.574 669.440
1897 1898 1900 1 109.745 292.880
1897 1898 1901 1 110.254 292.880
1898 1897 1902 1 116.799 292.880
1899 1898 1900 1 107.865 292.880
1899 1898 1901 1 107.980 292.880
1900 1898 1901 1 108.297 276.144
1904 1905 1906 1 115.974 669.440
1905 1906 1907 1 122.748 418.400
1905 1906 1910 1 117.141 292.880
1906 1907 1908 1 109.799 292.880
1906 1907 1909 1 110.394 292.880
1907 1906 1910 1 116.431 292.880
1908 1907 1909 1 108.377 276.144
1912 1913 1914 1 116.182 669.440
1913 1914 1915 1 123.014 418.400
1913 1914 1919 1 117.665 292.880
1914 1915 1916 1 112.146 669.440
1914 1915 1917 1 110.304 292.880
1914 1915 1918 1 109.909 292.880
1915 1914 1919 1 116.950 292.880
1916 1915 1917 1 108.147 292.880
1916 1915 1918 1 107.761 292.880
1917 1915 1918 1 108.464 276.144
1921 1922 1923 1 118.794 669.440
1922 1923 1924 1 123.066 418.400
1922 1923 1927 1 117.297 292.880
1923 1924 1925 1 109.745 292.880
1923 1924 1926 1 110.254 292.880
1924 1923 1927 1 116.799 292.880
1925 1924 1926 1 108.297 276.144
1929 1930 1931 1 115.974 669.440
1930 1931 1932 1 122.748 418.400
1930 1931 1936 1 117.141 292.880
1931 1932 1933 1 112.203 669.440
1931 1932 1934 1 109.799 292.880
1931 1932 1935 1 110.394 292.880
1932 1931 1936 1 116.431 292.880
1933 1932 1934 1 107.812 292.880
1933 1932 1935 1 108.141 292.880
1934 1932 1935 1 108.377 276.144
1938 1939 1940 1 116.182 669.440
1939 1940 1941 1 123.014 418.400
1939 1940 1945 1 117.665 292.880
1940 1941 1942 1 112.146 669.440
1940 1941 1943 1 110.304 292.880
1940 1941 1944 1 109.909 292.880
1941 1940 1945 1 116.950 292.880
1942 1941 1943 1 108.147 292.880
1942 1941 1944 1 107.761 292.880
1943 1941 1944 1 108.464 276.144
1947 1948 1949 1 118.794 669.440
1948 1949 1950 1 123.066 418.400
1948 1949 1954 1 117.297 292.880
1949 1950 1951 1 112.574 669.440
1949 1950 1952 1 109.745 292.880
1949 1950 1953 1 110.254 292.880
1950 1949 1954 1 116.799 292.880
1951 1950 1952 1 107.865 292.880
1951 1950 1953 1 107.980 292.880
1952 1950 1953 1 108.297 276.144
1956 1957 1958 1 115.974 669.440
1957 1958 1959 1 122.748 418.400
1957 1958 1963 1 117.141 292.880
1958 1959 1960 1 112.203 669.440
1958 1959 1961 1 109.799 292.880
1958 1959 1962 1 110.394 292.880
1959 1958 1963 1 116.431 292.880
1960 1959 1961 1 107.812 292.880
1960 1959 1962 1 108.141 292.880
1961 1959 1962 1 108.377 276.144
1965 1966 1967 1 116.182 669.440
1966 1967 1968 1 123.014 418.400
1966 1967 1972 1 117.665 292.880
1967 1968 1969 1 112.146 669.440
1967 1968 1970 1 110.304 292.880
1967 1968 1971 1 109.909 292.880
1968 1967 1972 1 116.950 292.880
1969 1968 1970 1 108.147 292.880
1969 1968 1971 1 107.761 292.880
1970 1968 1971 1 108.464 276.144
1974 1975 1976 1 118.794 669.440
1975 1976 1977 1 123.066 418.400
1975 1976 1981 1 117.297 292.880
1976 1977 1978 1 112.574 669.440
1976 1977 1979 1 109.745 292.880
1976 1977 1980 1 110.254 292.880
1977 1976 1981 1 116.799 292.880
1978 1977 1979 1 107.865 292.880
1978 1977 1980 1 107.980 292.880
1979 1977 1980 1 108.297 276.144
1983 1984 1985 1 115.974 669.440
1984 1985 1986 1 122.748 418.400
1984 1985 1990 1 117.141 292.880
1985 1986 1987 1 112.203 669.440
1985 1986 1988 1 109.799 292.880
1985 1986 1989 1 110.394 292.880
1986 1985 1990 1 116.431 292.880
1987 1986 1988 1 107.812 292.880
1987 1986 1989 1 108.141 292.880
1988 1986 1989 1 108.377 276.144
1992 1993 1994 1 116.182 669.440
1993 1994 1995 1 123.014 418.400
1993 1994 1999 1 117.665 292.880
1994 1995 1996 1 112.146 669.440
1994 1995 1997 1 110.304 292.880
1994 1995 1998 1 109.909 292.880
1995 1994 1999 1 116.950 292.880
1996 1995 1997 1 108.147 292.880
1996 1995 1998 1 107.761 292.880
1997 1995 1998 1 108.464 276.144
2001 2002 2003 1 118.794 669.440
2002 2003 2004 1 123.066 418.400
2002 2003 2008 1 117.297 292.880
2003 2004 2005 1 112.574 669.440
2003 2004 2006 1 109.745 292.880
2003 2004 2007 1 110.254 292.880
2004 2003 2008 1 116.799 292.880
2005 2004 2006 1 107.865 292.880
2005 2004 2007 1 107.980 292.880
2006 2004 2007 1 108.297 276.144
2010 2011 2012 1 115.974 669.440
2011 2012 2013 1 122.748 418.400
2011 2012 2017 1 117.141 292.880
2012 2013 2014 1 112.203 669.440
2012 2013 2015 1 109.799 292.880
2012 2013 2016 1 110.394 292.880
2013 2012 2017 1 116.431 292.880
2014 2013 2015 1 107.812 292.880
2014 2013 2016 1 108.141 292.880
2015 2013 2016 1 108.377 276.144
2019 2020 2021 1 116.182 669.440
2020 2021 2022 1 123.014 418.400
2020 2021 2026 1 117.665 292.880
2021 2022 2023 1 112.146 669.440
2021 2022 2024 1 110.304 292.880
2021 2022 2025 1 109.909 292.880
2022 2021 2026 1 116.950 292.880
2023 2022 2024 1 108.147 292.880
2023 2022 2025 1 107.761 292.880
2024 2022 2025 1 108.464 276.144
2028 2029 2030 1 118.794 669.440
2029 2030 2031 1 123.066 418.400
2029 2030 2035 1 117.297 292.880
2030 2031 2032 1 112.574 669.440
2030 2031 2033 1 109.745 292.880
2030 2031 2034 1 110.254 292.880
2031 2030 2035 1 116.799 292.880
2032 2031 2033 1 107.865 292.880
2032 2031 2034 1 107.980 292.880
2033 2031 2034 1 108.297 276.144
2037 2038 2039 1 115.974 669.440
2038 2039 2040 1 122.748 418.400
2038 2039 2044 1 117.141 292.880
2039 2040 2041 1 112.203 669.440
2039 2040 2042 1 109.799 292.880
2039 2040 2043 1 110.394 292.880
2040 2039 2044 1 116.431 292.880
2041 2040 2042 1 107.812 292.880
2041 2040 2043 1 108.141 292.880
2042 2040 2043 1 108.377 276.144
2046 2047 2048 1 116.182 669.440
2047 2048 2049 1 123.014 418.400
2047 2048 2053 1 117.665 292.880
2048 2049 2050 1 112.146 669.440
2048 2049 2051 1 110.304 292.880
2048 2049 2052 1 109.909 292.880
2049 2048 2053 1 116.950 292.880
2050 2049 2051 1 108.147 292.880
2050 2049 2052 1 107.761 292.880
2051 2049 2052 1 108.464 276.144
2055 2056 2057 1 118.794 669.440
2056 2057 2058 1 123.066 418.400
2056 2057 2062 1 117.297 292.880
2057 2058 2059 1 112.574 669.440
2057 2058 2060 1 109.745 292.880
2057 2058 2061 1 110.254 292.880
2058 2057 2062 1 116.799 292.880
2059 2058 2060 1 107.865 292.880
2059 2058 2061 1 107.980 292.880
2060 2058 2061 1 108.297 276.144
2064 2065 2066 1 115.974 669.440
2065 2066 2067 1 122.748 418.400
2065 2066 2071 1 117.141 292.880
2066 2067 2068 1 112.203 669.440
2066 2067 2069 1 109.799 292.880
2066 2067 2070 1 110.394 292.880
2067 2066 2071 1 116.431 292.880
2068 2067 2069 1 107.812 292.880
2068 2067 2070 1 108.141 292.880
2069 2067 2070 1 108.377 276.144
2073 2074 2075 1 116.182 669.440
2074 2075 2076 1 123.014 418.400
2074 2075 2080 1 117.665 292.880
2075 2076 2077 1 112.146 669.440
2075 2076 2078 1 110.304 292.880
2075 2076 2079 1 109.909 292.880
2076 2075 2080 1 116.950 292.880
2077 2076 2078 1 108.147 292.880
2077 2076 2079 1 107.761 292.880
2078 2076 2079 1 108.464 276.144
2082 2083 2084 1 118.794 669.440
2083 2084 2085 1 123.066 418.400
2083 2084 2088 1 117.297 292.880
2084 2085 2086 1 109.745 292.880
2084 2085 2087 1 110.254 292.880
2085 2084 2088 1 116.799 292.880
2086 2085 2087 1 108.297 276.144
2090 2091 2092 1 115.974 669.440
2091 2092 2093 1 122.748 418.400
2091 2092 2097 1 117.141 292.880
2092 2093 2094 1 112.203 669.440
2092 2093 2095 1 109.799 292.880
2092 2093 2096 1 110.394 292.880
2093 2092 2097 1 116.431 292.880
2094 2093 2095 1 107.812 292.880
2094 2093 2096 1 108.141 292.880
2095 2093 2096 1 108.377 276.144
2099 2100 2101 1 116.182 669.440
2100 2101 2102 1 123.014 418.400
2100 2101 2105 1 117.665 292.880
2101 2102 2103 1 110.304 292.880
2101 2102 2104 1 109.909 292.880
2102 2101 2105 1 116.950 292.880
2103 2102 2104 1 108.464 276.144
2107 2108 2109 1 118.794 669.440
2108 2109 2110 1 123.066 418.400
2108 2109 2113 1 117.297 292.880
2109 2110 2111 1 109.745 292.880
2109 2110 2112 1 110.254 292.880
2110 2109 2113 1 116.799 292.880
2111 2110 2112 1 108.297 276.144
2115 2116 2117 1 115.974 669.440
2116 2117 2118 1 122.748 418.400
2116 2117 2122 1 117.141 292.880
2117 2118 2119 1 112.203 669.440
2117 2118 2120 1 109.799 292.880
2117 2118 2121 1 110.394 292.880
2118 2117 2122 1 116.431 292.880
2119 2118 2120 1 107.812 292.880
2119 2118 2121 1 108.141 292.880
2120 2118 2121 1 108.377 276.144
2124 2125 2126 1 116.182 669.440
2125 2126 2127 1 123.014 418.400
2125 2126 2131 1 117.665 292.880
2126 2127 2128 1 112.146 669.440
2126 2127 2129 1 110.304 292.880
2126 2127 2130 1 109.909 292.880
2127 2126 2131 1 116.950 292.880
2128 2127 2129 1 108.147 292.880
2128 2127 2130 1 107.761 292.880
2129 2127 2130 1 108.464 276.144
2133 2134 2135 1 118.794 669.440
2134 2135 2136 1 123.066 418.400
2134 2135 2140 1 117.297 292.880
2135 2136 2137 1 112.574 669.440
2135 2136 2138 1 109.745 292.880
2135 2136 2139 1 110.254 292.880
2136 2135 2140 1 116.799 292.880
2137 2136 2138 1 107.865 292.880
2137 2136 2139 1 107.980 292.880
2138 2136 2139 1 108.297 276.144
2142 2143 2144 1 115.974 669.440
2143 2144 2145 1 122.748 418.400
2143 2144 2149 1 117.141 292.880
2144 2145 2146 1 112.203 669.440
2144 2145 2147 1 109.799 292.880
2144 2145 2148 1 110.394 292.880
2145 2144 2149 1 116.431 292.880
2146 2145 2147 1 107.812 292.880
2146 2145 2148 1 108.141 292.880
2147 2145 2148 1 108.377 276.144
2151 2152 2153 1 116.182 669.440
2152 2153 2154 1 123.014 418.400
2152 2153 2158 1 117.665 292.880
2153 2154 2155 1 112.146 669.440
2153 2154 2156 1 110.304 292.880
2153 2154 2157 1 109.909 292.880
2154 2153 2158 1 116.950 292.880
2155 2154 2156 1 108.147 292.880
2155 2154 2157 1 107.761 292.880
2156 2154 2157 1 108.464 276.144
2160 2161 2162 1 118.794 669.440
2161 2162 2163 1 123.066 418.400
2161 2162 2167 1 117.297 292.880
2162 2163 2164 1 112.574 669.440
2162 2163 2165 1 109.745 292.880
2162 2163 2166 1 110.254 292.880
2163 2162 2167 1 116.799 292.880
2164 2163 2165 1 107.865 292.880
2164 2163 2166 1 107.980 292.880
2165 2163 2166 1 108.297 276.144
2169 2170 2171 1 115.974 669.440
2170 2171 2172 1 122.748 418.400
2170 2171 2176 1 117.141 292.880
2171 2172 2173 1 112.203 669.440
2171 2172 2174 1 109.799 292.880
2171 2172 2175 1 110.394 292.880
2172 2171 2176 1 116.431 292.880
2173 2172 2174 1 107.812 292.880
2173 2172 2175 1 108.141 292.880
2174 2172 2175 1 108.377 276.144
2178 2179 2180 1 116.182 669.440
2179 2180 2181 1 123.014 418.400
2179 2180 2186 1 117.665 292.880
2180 2181 2182 1 112.146 669.440
2180 2181 2184 1 110.304 292.880
2180 2181 2185 1 109.909 292.880
2181 2180 2186 1 116.950 292.880
2181 2182 2183 1 107.577 460.240
2182 2181 2184 1 108.147 292.880
2182 2181 2185 1 107.761 292.880
2184 2181 2185 1 108.464 276.144
2188 2189 2190 1 118.794 669.440
2189 2190 2191 1 123.066 418.400
2189 2190 2195 1 117.297 292.880
2190 2191 2192 1 112.574 669.440
2190 2191 2193 1 109.745 292.880
2190 2191 2194 1 110.254 292.880
2191 2190 2195 1 116.799 292.880
2192 2191 2193 1 107.865 292.880
2192 2191 2194 1 107.980 292.880
2193 2191 2194 1 108.297 276.144
2197 2198 2199 1 115.974 669.440
2198 2199 2200 1 122.748 418.400
2198 2199 2204 1 117.141 292.880
2199 2200 2201 1 112.203 669.440
2199 2200 2202 1 109.799 292.880
2199 2200 2203 1 110.394 292.880
2200 2199 2204 1 116.431 292.880
2201 2200 2202 1 107.812 292.880
2201 2200 2203 1 108.141 292.880
2202 2200 2203 1 108.377 276.144
2206 2207 2208 1 116.182 669.440
2207 2208 2209 1 123.014 418.400
2207 2208 2213 1 117.665 292.880
2208 2209 2210 1 112.146 669.440
2208 2209 2211 1 110.304 292.880
2208 2209 2212 1 109.909 292.880
2209 2208 2213 1 116.950 292.880
2210 2209 2211 1 108.147 292.880
2210 2209 2212 1 107.761 292.880
2211 2209 2212 1 108.464 276.144
2215 2216 2217 1 118.794 669.440
2216 2217 2218 1 123.066 418.400
2216 2217 2223 1 117.297 292.880
2217 2218 2219 1 112.574 669.440
2217 2218 2221 1 109.745 292.880
2217 2218 2222 1 110.254 292.880
2218 2217 2223 1 116.799 292.880
2218 2219 2220 1 108.806 460.240
2219 2218 2221 1 107.865 292.880
2219 2218 2222 1 107.980 292.880
2221 2218 2222 1 108.297 276.144
2225 2226 2227 1 115.974 669.440
2226 2227 2228 1 122.748 418.400
2226 2227 2232 1 117.141 292.880
2227 2228 2229 1 112.203 669.440
2227 2228 2230 1 109.799 292.880
2227 2228 2231 1 110.394 292.880
2228 2227 2232 1 116.431 292.880
2229 2228 2230 1 107.812 292.880
2229 2228 2231 1 108.141 292.880
2230 2228 2231 1 108.377 276.144
2234 2235 2236 1 116.182 669.440
2235 2236 2237 1 123.014 418.400
2235 2236 2241 1 117.665 292.880
2236 2237 2238 1 112.146 669.440
2236 2237 2239 1 110.304 292.880
2236 2237 2240 1 109.909 292.880
2237 2236 2241 1 116.950 292.880
2238 2237 2239 1 108.147 292.880
2238 2237 2240 1 107.761 292.880
2239 2237 2240 1 108.464 276.144
2243 2244 2245 1 118.794 669.440
2244 2245 2246 1 123.066 418.400
2244 2245 2250 1 117.297 292.880
2245 2246 2247 1 112.574 669.440
2245 2246 2248 1 109.745 292.880
2245 2246 2249 1 110.254 292.880
2246 2245 2250 1 116.799 292.880
2247 2246 2248 1 107.865 292.880
2247 2246 2249 1 107.980 292.880
2248 2246 2249 1 108.297 276.144
2252 2253 2254 1 115.974 669.440
2253 2254 2255 1 122.748 418.400
2253 2254 2259 1 117.141 292.880
2254 2255 2256 1 112.203 669.440
2254 2255 2257 1 109.799 292.880
2254 2255 2258 1 110.394 292.880
2255 2254 2259 1 116.431 292.880
2256 2255 2257 1 107.812 292.880
2256 2255 2258 1 108.141 292.880
2257 2255 2258 1 108.377 276.144
2261 2262 2263 1 116.182 669.440
2262 2263 2264 1 123.014 418.400
2262 2263 2268 1 117.665 292.880
2263 2264 2265 1 112.146 669.440
2263 2264 2266 1 110.304 292.880
2263 2264 2267 1 109.909 292.880
2264 2263 2268 1 116.950 292.880
2265 2264 2266 1 108.147 292.880
2265 2264 2267 1 107.761 292.880
2266 2264 2267 1 108.464 276.144
2270 2271 2272 1 118.794 669.440
2271 2272 2273 1 123.066 418.400
2271 2272 2277 1 117.297 292.880
2272 2273 2274 1 112.574 669.440
2272 2273 2275 1 109.745 292.880
2272 2273 2276 1 110.254 292.880
2273 2272 2277 1 116.799 292.880
2274 2273 2275 1 107.865 292.880
2274 2273 2276 1 107.980 292.880
2275 2273 2276 1 108.297 276.144
2279 2280 2281 1 115.974 669.440
2280 2281 2282 1 122.748 418.400
2280 2281 2286 1 117.141 292.880
2281 2282 2283 1 112.203 669.440
2281 2282 2284 1 109.799 292.880
2281 2282 2285 1 110.394 292.880
2282 2281 2286 1 116.431 292.880
2283 2282 2284 1 107.812 292.880
2283 2282 2285 1 108.141 292.880
2284 2282 2285 1 108.377 276.144
2288 2289 2290 1 116.182 669.440
2289 2290 2291 1 123.014 418.400
2289 2290 2295 1 117.665 292.880
2290 2291 2292 1 112.146 669.440
2290 2291 2293 1 110.304 292.880
2290 2291 2294 1 109.909 292.880
2291 2290 2295 1 116.950 292.880
2292 2291 2293 1 108.147 292.880
2292 2291 2294 1 107.761 292.880
2293 2291 2294 1 108.464 276.144
2297 2298 2299 1 118.794 669.440
2298 2299 2300 1 123.066 418.400
2298 2299 2304 1 117.297 292.880
2299 2300 2301 1 112.574 669.440
2299 2300 2302 1 109.745 292.880
2299 2300 2303 1 110.254 292.880
2300 2299 2304 1 116.799 292.880
2301 2300 2302 1 107.865 292.880
2301 2300 2303 1 107.980 292.880
2302 2300 2303 1 108.297 276.144
2306 2307 2308 1 115.974 669.440
2307 2308 2309 1 122.748 418.400
2307 2308 2313 1 117.141 292.880
2308 2309 2310 1 112.203 669.440
2308 2309 2311 1 109.799 292.880
2308 2309 2312 1 110.394 292.880
2309 2308 2313 1 116.431 292.880
2310 2309 2311 1 107.812 292.880
2310 2309 2312 1 108.141 292.880
2311 2309 2312 1 108.377 276.144
2315 2316 2317 1 116.182 669.440
2316 2317 2318 1 123.014 418.400
2316 2317 2322 1 117.665 292.880
2317 2318 2319 1 112.146 669.440
2317 2318 2320 1 110.304 292.880
2317 2318 2321 1 109.909 292.880
2318 2317 2322 1 116.950 292.880
2319 2318 2320 1 108.147 292.880
2319 2318 2321 1 107.761 292.880
2320 2318 2321 1 108.464 276.144
2324 2325 2326 1 118.794 669.440
2325 2326 2327 1 123.066 418.400
2325 2326 2331 1 117.297 292.880
2326 2327 2328 1 112.574 669.440
2326 2327 2329 1 109.745 292.880
2326 2327 2330 1 110.254 292.880
2327 2326 2331 1 116.799 292.880
2328 2327 2329 1 107.865 292.880
2328 2327 2330 1 107.980 292.880
2329 2327 2330 1 108.297 276.144
2333 2334 2335 1 115.974 669.440
2334 2335 2336 1 122.748 418.400
2334 2335 2340 1 117.141 292.880
2335 2336 2337 1 112.203 669.440
2335 2336 2338 1 109.799 292.880
2335 2336 2339 1 110.394 292.880
2336 2335 2340 1 116.431 292.880
2337 2336 2338 1 107.812 292.880
2337 2336 2339 1 108.141 292.880
2338 2336 2339 1 108.377 276.144
2342 2343 2344 1 116.182 669.440
2343 2344 2345 1 123.014 418.400
2343 2344 2349 1 117.665 292.880
2344 2345 2346 1 112.146 669.440
2344 2345 2347 1 110.304 292.880
2344 2345 2348 1 109.909 292.880
2345 2344 2349 1 116.950 292.880
2346 2345 2347 1 108.147 292.880
2346 2345 2348 1 107.761 292.880
2347 2345 2348 1 108.464 276.144
2351 2352 2353 1 118.794 669.440
2352 2353 2354 1 123.066 418.400
2352 2353 2359 1 117.297 292.880
2353 2354 2355 1 112.574 669.440
2353 2354 2357 1 109.745 292.880
2353 2354 2358 1 110.254 292.880
2354 2353 2359 1 116.799 292.880
2354 2355 2356 1 108.806 460.240
2355 2354 2357 1 107.865 292.880
2355 2354 2358 1 107.980 292.880
2357 2354 2358 1 108.297 276.144
2361 2362 2363 1 115.974 669.440
2362 2363 2364 1 122.748 418.400
2362 2363 2367 1 117.141 292.880
2363 2364 2365 1 109.799 292.880
2363 2364 2366 1 110.394 292.880
2364 2363 2367 1 116.431 292.880
2365 2364 2366 1 108.377 276.144
2369 2370 2371 1 116.182 669.440
2370 2371 2372 1 123.014 418.400
2370 2371 2376 1 117.665 292.880
2371 2372 2373 1 112.146 669.440
2371 2372 2374 1 110.304 292.880
2371 2372 2375 1 109.909 292.880
2372 2371 2376 1 116.950 292.880
2373 2372 2374 1 108.147 292.880
2373 2372 2375 1 107.761 292.880
2374 2372 2375 1 108.464 276.144
2378 2379 2380 1 118.794 669.440
2379 2380 2381 1 123.066 418.400
2379 2380 2385 1 117.297 292.880
2380 2381 2382 1 112.574 669.440
2380 2381 2383 1 109.745 292.880
2380 2381 2384 1 110.254 292.880
2381 2380 2385 1 116.799 292.880
2382 2381 2383 1 107.865 292.880
2382 2381 2384 1 107.980 292.880
2383 2381 2384 1 108.297 276.144
2387 2388 2389 1 115.974 669.440
2388 2389 2390 1 122.748 418.400
2388 2389 2394 1 117.141 292.880
2389 2390 2391 1 112.203 669.440
2389 2390 2392 1 109.799 292.880
2389 2390 2393 1 110.394 292.880
2390 2389 2394 1 116.431 292.880
2391 2390 2392 1 107.812 292.880
2391 2390 2393 1 108.141 292.880
2392 2390 2393 1 108.377 276.144
2396 2397 2398 1 116.182 669.440
2397 2398 2399 1 123.014 418.400
2397 2398 2403 1 117.665 292.880
2398 2399 2400 1 112.146 669.440
2398 2399 2401 1 110.304 292.880
2398 2399 2402 1 109.909 292.880
2399 2398 2403 1 116.950 292.880
2400 2399 2401 1 108.147 292.880
2400 2399 2402 1 107.761 292.880
2401 2399 2402 1 108.464 276.144
2405 2406 2407 1 118.794 669.440
2406 2407 2408 1 123.066 418.400
2406 2407 2412 1 117.297 292.880
2407 2408 2409 1 112.574 669.440
2407 2408 2410 1 109.745 292.880
2407 2408 2411 1 110.254 292.880
2408 2407 2412 1 116.799 292.880
2409 2408 2410 1 107.865 292.880
2409 2408 2411 1 107.980 292.880
2410 2408 2411 1 108.297 276.144
2414 2415 2416 1 115.974 669.440
2415 2416 2417 1 122.748 418.400
2415 2416 2421 1 117.141 292.880
2416 2417 2418 1 112.203 669.440
2416 2417 2419 1 109.799 292.880
2416 2417 2420 1 110.394 292.880
2417 2416 2421 1 116.431 292.880
2418 2417 2419 1 107.812 292.880
2418 2417 2420 1 108.141 292.880
2419 2417 2420 1 108.377 276.144
2423 2424 2425 1 116.182 669.440
2424 2425 2426 1 123.014 418.400
2424 2425 2429 1 117.665 292.880
2425 2426 2427 1 110.304 292.880
2425 2426 2428 1 109.909 292.880
2426 2425 2429 1 116.950 292.880
2427 2426 2428 1 108.464 276.144
2431 2432 2433 1 118.794 669.440
2432 2433 2434 1 123.066 418.400
2432 2433 2438 1 117.297 292.880
2433 2434 2435 1 112.574 669.440
2433 2434 2436 1 109.745 292.880
2433 2434 2437 1 110.254 292.880
2434 2433 2438 1 116.799 292.880
2435 2434 2436 1 107.865 292.880
2435 2434 2437 1 107.980 292.880
2436 2434 2437 1 108.297 276.144
2440 2441 2442 1 115.974 669.440
2441 2442 2443 1 122.748 418.400
2441 2442 2448 1 117.141 292.880
2442 2443 2444 1 112.203 669.440
2442 2443 2446 1 109.799 292.880
2442 2443 2447 1 110.394 292.880
2443 2442 2448 1 116.431 292.880
2443 2444 2445 1 107.831 460.240
2444 2443 2446 1 107.812 292.880
2444 2443 2447 1 108.141 292.880
2446 2443 2447 1 108.377 276.144
2450 2451 2452 1 116.182 669.440
2451 2452 2453 1 123.014 418.400
2451 2452 2457 1 117.665 292.880
2452 2453 2454 1 112.146 669.440
2452 2453 2455 1 110.304 292.880
2452 2453 2456 1 109.909 292.880
2453 2452 2457 1 116.950 292.880
2454 2453 2455 1 108.147 292.880
2454 2453 2456 1 107.761 292.880
2455 2453 2456 1 108.464 276.144
2459 2460 2461 1 118.794 669.440
2460 2461 2462 1 123.066 418.400
2460 2461 2466 1 117.297 292.880
2461 2462 2463 1 112.574 669.440
2461 2462 2464 1 109.745 292.880
2461 2462 2465 1 110.254 292.880
2462 2461 2466 1 116.799 292.880
2463 2462 2464 1 107.865 292.880
2463 2462 2465 1 107.980 292.880
2464 2462 2465 1 108.297 276.144
2468 2469 2470 1 115.974 669.440
2469 2470 2471 1 122.748 418.400
2469 2470 2474 1 117.141 292.880
2470 2471 2472 1 109.799 292.880
2470 2471 2473 1 110.394 292.880
2471 2470 2474 1 116.431 292.880
2472 2471 2473 1 108.377 276.144
2476 2477 2478 1 116.182 669.440
2477 2478 2479 1 123.014 418.400
2477 2478 2483 1 117.665 292.880
2478 2479 2480 1 112.146 669.440
2478 2479 2481 1 110.304 292.880
2478 2479 2482 1 109.909 292.880
2479 2478 2483 1 116.950 292.880
2480 2479 2481 1 108.147 292.880
2480 2479 2482 1 107.761 292.880
2481 2479 2482 1 108.464 276.144
2485 2486 2487 1 118.794 669.440
2486 2487 2488 1 123.066 418.400
2486 2487 2492 1 117.297 292.880
2487 2488 2489 1 112.574 669.440
2487 2488 2490 1 109.745 292.880
2487 2488 2491 1 110.254 292.880
2488 2487 2492 1 116.799 292.880
2489 2488 2490 1 107.865 292.880
2489 2488 2491 1 107.980 292.880
2490 2488 2491 1 108.297 276.144
2494 2495 2496 1 115.974 669.440
2495 2496 2497 1 122.748 418.400
2495 2496 2501 1 117.141 292.880
2496 2497 2498 1 112.203 669.440
2496 2497 2499 1 109.799 292.880
2496 2497 2500 1 110.394 292.880
2497 2496 2501 1 116.431 292.880
2498 2497 2499 1 107.812 292.880
2498 2497 2500 1 108.141 292.880
2499 2497 2500 1 108.377 276.144
2503 2504 2505 1 116.182 669.440
2504 2505 2506 1 123.014 418.400
2504 2505 2510 1 117.665 292.880
2505 2506 2507 1 112.146 669.440
2505 2506 2508 1 110.304 292.880
2505 2506 2509 1 109.909 292.880
2506 2505 2510 1 116.950 292.880
2507 2506 2508 1 108.147 292.880
2507 2506 2509 1 107.761 292.880
2508 2506 2509 1 108.464 276.144
2512 2513 2514 1 118.794 669.440
2513 2514 2515 1 123.066 418.400
2513 2514 2519 1 117.297 292.880
2514 2515 2516 1 112.574 669.440
2514 2515 2517 1 109.745 292.880
2514 2515 2518 1 110.254 292.880
2515 2514 2519 1 116.799 292.880
2516 2515 2517 1 107.865 292.880
2516 2515 2518 1 107.980 292.880
2517 2515 2518 1 108.297 276.144
2521 2522 2523 1 115.974 669.440
2522 2523 2524 1 122.748 418.400
2522 2523 2528 1 117.141 292.880
2523 2524 2525 1 112.203 669.440
2523 2524 2526 1 109.799 292.880
2523 2524 2527 1 110.394 292.880
2524 2523 2528 1 116.431 292.880
2525 2524 2526 1 107.812 292.880
2525 2524 2527 1 108.141 292.880
2526 2524 2527 1 108.377 276.144
2530 2531 2532 1 116.182 669.440
2531 2532 2533 1 123.014 418.400
2531 2532 2536 1 117.665 292.880
2532 2533 2534 1 110.304 292.880
2532 2533 2535 1 109.909 292.880
2533 2532 2536 1 116.950 292.880
2534 2533 2535 1 108.464 276.144
2538 2539 2540 1 118.794 669.440
2539 2540 2541 1 123.066 418.400
2539 2540 2545 1 117.297 292.880
2540 2541 2542 1 112.574 669.440
2540 2541 2543 1 109.745 292.880
2540 2541 2544 1 110.254 292.880
2541 2540 2545 1 116.799 292.880
2542 2541 2543 1 107.865 292.880
2542 2541 2544 1 107.980 292.880
2543 2541 2544 1 108.297 276.144
2547 2548 2549 1 115.974 669.440
2548 2549 2550 1 122.748 418.400
2548 2549 2554 1 117.141 292.880
2549 2550 2551 1 112.203 669.440
2549 2550 2552 1 109.799 292.880
2549 2550 2553 1 110.394 292.880
2550 2549 2554 1 116.431 292.880
2551 2550 2552 1 107.812 292.880
2551 2550 2553 1 108.141 292.880
2552 2550 2553 1 108.377 276.144
2556 2557 2558 1 116.182 669.440
2557 2558 2559 1 123.014 418.400
2557 2558 2563 1 117.665 292.880
2558 2559 2560 1 112.146 669.440
2558 2559 2561 1 110.304 292.880
2558 2559 2562 1 109.909 292.880
2559 2558 2563 1 116.950 292.880
2560 2559 2561 1 108.147 292.880
2560 2559 2562 1 107.761 292.880
2561 2559 2562 1 108.464 276.144
2565 2566 2567 1 118.794 669.440
2566 2567 2568 1 123.066 418.400
2566 2567 2572 1 117.297 292.880
2567 2568 2569 1 112.574 669.440
2567 2568 2570 1 109.745 292.880
2567 2568 2571 1 110.254 292.880
2568 2567 2572 1 116.799 292.880
2569 2568 2570 1 107.865 292.880
2569 2568 2571 1 107.980 292.880
2570 2568 2571 1 108.297 276.144
2574 2575 2576 1 115.974 669.440
2575 2576 2577 1 122.748 418.400
2575 2576 2582 1 117.141 292.880
2576 2577 2578 1 112.203 669.440
2576 2577 2580 1 109.799 292.880
2576 2577 2581 1 110.394 292.880
2577 2576 2582 1 116.431 292.880
2577 2578 2579 1 107.831 460.240
2578 2577 2580 1 107.812 292.880
2578 2577 2581 1 108.141 292.880
2580 2577 2581 1 108.377 276.144
2584 2585 2586 1 116.182 669.440
2585 2586 2587 1 123.014 418.400
2585 2586 2592 1 117.665 292.880
2586 2587 2588 1 112.146 669.440
2586 2587 2590 1 110.304 292.880
2586 2587 2591 1 109.909 292.880
2587 2586 2592 1 116.950 292.880
2587 2588 2589 1 107.577 460.240
2588 2587 2590 1 108.147 292.880
2588 2587 2591 1 107.761 292.880
2590 2587 2591 1 108.464 276.144
2594 2595 2596 1 118.794 669.440
2595 2596 2597 1 123.066 418.400
2595 2596 2601 1 117.297 292.880
2596 2597 2598 1 112.574 669.440
2596 2597 2599 1 109.745 292.880
2596 2597 2600 1 110.254 292.880
2597 2596 2601 1 116.799 292.880
2598 2597 2599 1 107.865 292.880
2598 2597 2600 1 107.980 292.880
2599 2597 2600 1 108.297 276.144
2603 2604 2605 1 115.974 669.440
2604 2605 2606 1 122.748 418.400
2604 2605 2610 1 117.141 292.880
2605 2606 2607 1 112.203 669.440
2605 2606 2608 1 109.799 292.880
2605 2606 2609 1 110.394 292.880
2606 2605 2610 1 116.431 292.880
2607 2606 2608 1 107.812 292.880
2607 2606 2609 1 108.141 292.880
2608 2606 2609 1 108.377 276.144
2612 2613 2614 1 116.182 669.440
2613 2614 2615 1 123.014 418.400
2613 2614 2619 1 117.665 292.880
2614 2615 2616 1 112.146 669.440
2614 2615 2617 1 110.304 292.880
2614 2615 2618 1 109.909 292.880
2615 2614 2619 1 116.950 292.880
2616 2615 2617 1 108.147 292.880
2616 2615 2618 1 107.761 292.880
2617 2615 2618 1 108.464 276.144
2621 2622 2623 1 118.794 669.440
2622 2623 2624 1 123.066 418.400
2622 2623 2628 1 117.297 292.880
2623 2624 2625 1 112.574 669.440
2623 2624 2626 1 109.745 292.880
2623 2624 2627 1 110.254 292.880
2624 2623 2628 1 116.799 292.880
2625 2624 2626 1 107.865 292.880
2625 2624 2627 1 107.980 292.880
2626 2624 2627 1 108.297 276.144
2630 2631 2632 1 115.974 669.440
2631 2632 2633 1 122.748 418.400
2631 2632 2636 1 117.141 292.880
2632 2633 2634 1 109.799 292.880
2632 2633 2635 1 110.394 292.880
2633 2632 2636 1 116.431 292.880
2634 2633 2635 1 108.377 276.144
2638 2639 2640 1 116.182 669.440
2639 2640 2641 1 123.014 418.400
2639 2640 2645 1 117.665 292.880
2640 2641 2642 1 112.146 669.440
2640 2641 2643 1 110.304 292.880
2640 2641 2644 1 109.909 292.880
2641 2640 2645 1 116.950 292.880
2642 2641 2643 1 108.147 292.880
2642 2641 2644 1 107.761 292.880
2643 2641 2644 1 108.464 276.144
2647 2648 2649 1 118.794 669.440
2648 2649 2650 1 123.066 418.400
2648 2649 2654 1 117.297 292.880
2649 2650 2651 1 112.574 669.440
2649 2650 2652 1 109.745 292.880
2649 2650 2653 1 110.254 292.880
2650 2649 2654 1 116.799 292.880
2651 2650 2652 1 107.865 292.880
2651 2650 2653 1 107.980 292.880
2652 2650 2653 1 108.297 276.144
2656 2657 2658 1 115.974 669.440
2657 2658 2659 1 122.748 418.400
2657 2658 2663 1 117.141 292.880
2658 2659 2660 1 112.203 669.440
2658 2659 2661 1 109.799 292.880
2658 2659 2662 1 110.394 292.880
2659 2658 2663 1 116.431 292.880
2660 2659 2661 1 107.812 292.880
2660 2659 2662 1 108.141 292.880
2661 2659 2662 1 108.377 276.144
2665 2666 2667 1 116.182 669.440
2666 2667 2668 1 123.014 418.400
2666 2667 2672 1 117.665 292.880
2667 2668 2669 1 112.146 669.440
2667 2668 2670 1 110.304 292.880
2667 2668 2671 1 109.909 292.880
2668 2667 2672 1 116.950 292.880
2669 2668 2670 1 108.147 292.880
2669 2668 2671 1 107.761 292.880
2670 2668 2671 1 108.464 276.144
2674 2675 2676 1 118.794 669.440
2675 2676 2677 1 123.066 418.400
2675 2676 2682 1 117.297 292.880
2676 2677 2678 1 112.574 669.440
2676 2677 2680 1 109.745 292.880
2676 2677 2681 1 110.254 292.880
2677 2676 2682 1 116.799 292.880
2677 2678 2679 1 108.806 460.240
2678 2677 2680 1 107.865 292.880
2678 2677 2681 1 107.980 292.880
2680 2677 2681 1 108.297 276.144
2684 2685 2686 1 115.974 669.440
2685 2686 2687 1 122.748 418.400
2685 2686 2691 1 117.141 292.880
2686 2687 2688 1 112.203 669.440
2686 2687 2689 1 109.799 292.880
2686 2687 2690 1 110.394 292.880
2687 2686 2691 1 116.431 292.880
2688 2687 2689 1 107.812 292.880
2688 2687 2690 1 108.141 292.880
2689 2687 2690 1 108.377 276.144
2693 2694 2695 1 116.182 669.440
2694 2695 2696 1 123.014 418.400
2694 2695 2699 1 117.665 292.880
2695 2696 2697 1 110.304 292.880
2695 2696 2698 1 109.909 292.880
2696 2695 2699 1 116.950 292.880
2697 2696 2698 1 108.464 276.144
2701 2702 2703 1 118.794 669.440
2702 2703 2704 1 123.066 418.400
2702 2703 2707 1 117.297 292.880
2703 2704 2705 1 109.745 292.880
2703 2704 2706 1 110.254 292.880
2704 2703 2707 1 116.799 292.880
2705 2704 2706 1 108.297 276.144
2709 2710 2711 1 115.974 669.440
2710 2711 2712 1 122.748 418.400
2710 2711 2716 1 117.141 292.880
2711 2712 2713 1 112.203 669.440
2711 2712 2714 1 109.799 292.880
2711 2712 2715 1 110.394 292.880
2712 2711 2716 1 116.431 292.880
2713 2712 2714 1 107.812 292.880
2713 2712 2715 1 108.141 292.880
2714 2712 2715 1 108.377 276.144
2718 2719 2720 1 116.182 669.440
2719 2720 2721 1 123.014 418.400
2719 2720 2725 1 117.665 292.880
2720 2721 2722 1 112.146 669.440
2720 2721 2723 1 110.304 292.880
2720 2721 2724 1 109.909 292.880
2721 2720 2725 1 116.950 292.880
2722 2721 2723 1 108.147 292.880
2722 2721 2724 1 107.761 292.880
2723 2721 2724 1 108.464 276.144
2727 2728 2729 1 118.794 669.440
2728 2729 2730 1 123.066 418.400
2728 2729 2733 1 117.297 292.880
2729 2730 2731 1 109.745 292.880
2729 2730 2732 1 110.254 292.880
2730 2729 2733 1 116.799 292.880
2731 2730 2732 1 108.297 276.144
2735 2736 2737 1 115.974 669.440
2736 2737 2738 1 122.748 418.400
2736 2737 2742 1 117.141 292.880
2737 2738 2739 1 112.203 669.440
2737 2738 2740 1 109.799 292.880
2737 2738 2741 1 110.394 292.880
2738 2737 2742 1 116.431 292.880
2739 2738 2740 1 107.812 292.880
2739 2738 2741 1 108.141 292.880
2740 2738 2741 1 108.377 276.144
2744 2745 2746 1 116.182 669.440
2745 2746 2747 1 123.014 418.400
2745 2746 2751 1 117.665 292.880
2746 2747 2748 1 112.146 669.440
2746 2747 2749 1 110.304 292.880
2746 2747 2750 1 109.909 292.880
2747 2746 2751 1 116.950 292.880
2748 2747 2749 1 108.147 292.880
2748 2747 2750 1 107.761 292.880
2749 2747 2750 1 108.464 276.144
2753 2754 2755 1 118.794 669.440
2754 2755 2756 1 123.066 418.400
2754 2755 2761 1 117.297 292.880
2755 2756 2757 1 112.574 669.440
2755 2756 2759 1 109.745 292.880
2755 2756 2760 1 110.254 292.880
2756 2755 2761 1 116.799 292.880
2756 2757 2758 1 108.806 460.240
2757 2756 2759 1 107.865 292.880
2757 2756 2760 1 107.980 292.880
2759 2756 2760 1 108.297 276.144
2763 2764 2765 1 115.974 669.440
2764 2765 2766 1 122.748 418.400
2764 2765 2770 1 117.141 292.880
2765 2766 2767 1 112.203 669.440
2765 2766 2768 1 109.799 292.880
2765 2766 2769 1 110.394 292.880
2766 2765 2770 1 116.431 292.880
2767 2766 2768 1 107.812 292.880
2767 2766 2769 1 108.141 292.880
2768 2766 2769 1 108.377 276.144
2772 2773 2774 1 116.182 669.440
2773 2774 2775 1 123.014 418.400
2773 2774 2779 1 117.665 292.880
2774 2775 2776 1 112.146 669.440
2774 2775 2777 1 110.304 292.880
2774 2775 2778 1 109.909 292.880
2775 2774 2779 1 116.950 292.880
2776 2775 2777 1 108.147 292.880
2776 2775 2778 1 107.761 292.880
2777 2775 2778 1 108.464 276.144
2781 2782 2783 1 118.794 669.440
2782 2783 2784 1 123.066 418.400
2782 2783 2787 1 117.297 292.880
2783 2784 2785 1 109.745 292.880
2783 2784 2786 1 110.254 292.880
2784 2783 2787 1 116.799 292.880
2785 2784 2786 1 108.297 276.144
2789 2790 2791 1 115.974 669.440
2790 2791 2792 1 122.748 418.400
2790 2791 2796 1 117.141 292.880
2791 2792 2793 1 112.203 669.440
2791 2792 2794 1 109.799 292.880
2791 2792 2795 1 110.394 292.880
2792 2791 2796 1 116.431 292.880
2793 2792 2794 1 107.812 292.880
2793 2792 2795 1 108.141 292.880
2794 2792 2795 1 108.377 276.144
2798 2799 2800 1 116.182 669.440
2799 2800 2801 1 123.014 418.400
2799 2800 2805 1 117.665 292.880
2800 2801 2802 1 112.146 669.440
2800 2801 2803 1 110.304 292.880
2800 2801 2804 1 109.909 292.880
2801 2800 2805 1 116.950 292.880
2802 2801 2803 1 108.147 292.880
2802 2801 2804 1 107.761 292.880
2803 2801 2804 1 108.464 276.144
2807 2808 2809 1 118.794 669.440
2808 2809 2810 1 123.066 418.400
2808 2809 2814 1 117.297 292.880
2809 2810 2811 1 112.574 669.440
2809 2810 2812 1 109.745 292.880
2809 2810 2813 1 110.254 292.880
2810 2809 2814 1 116.799 292.880
2811 2810 2812 1 107.865 292.880
2811 2810 2813 1 107.980 292.880
2812 2810 2813 1 108.297 276.144
2816 2817 2818 1 115.974 669.440
2817 2818 2819 1 122.748 418.400
2817 2818 2823 1 117.141 292.880
2818 2819 2820 1 112.203 669.440
2818 2819 2821 1 109.799 292.880
2818 2819 2822 1 110.394 292.880
2819 2818 2823 1 116.431 292.880
2820 2819 2821 1 107.812 292.880
2820 2819 2822 1 108.141 292.880
2821 2819 2822 1 108.377 276.144
2825 2826 2827 1 116.182 669.440
2826 2827 2828 1 123.014 418.400
2826 2827 2831 1 117.665 292.880
2827 2828 2829 1 110.304 292.880
2827 2828 2830 1 109.909 292.880
2828 2827 2831 1 116.950 292.880
2829 2828 2830 1 108.464 276.144
2833 2834 2835 1 118.794 669.440
2834 2835 2836 1 123.066 418.400
2834 2835 2840 1 117.297 292.880
2835 2836 2837 1 112.574 669.440
2835 2836 2838 1 109.745 292.880
2835 2836 2839 1 110.254 292.880
2836 2835 2840 1 116.799 292.880
2837 2836 2838 1 107.865 292.880
2837 2836 2839 1 107.980 292.880
2838 2836 2839 1 108.297 276.144
2842 2843 2844 1 115.974 669.440
2843 2844 2845 1 122.748 418.400
2843 2844 2849 1 117.141 292.880
2844 2845 2846 1 112.203 669.440
2844 2845 2847 1 109.799 292.880
2844 2845 2848 1 110.394 292.880
2845 2844 2849 1 116.431 292.880
2846 2845 2847 1 107.812 292.880
2846 2845 2848 1 108.141 292.880
2847 2845 2848 1 108.377 276.144
2851 2852 2853 1 116.182 669.440
2852 2853 2854 1 123.014 418.400
2852 2853 2857 1 117.665 292.880
2853 2854 2855 1 110.304 292.880
2853 2854 2856 1 109.909 292.880
2854 2853 2857 1 116.950 292.880
2855 2854 2856 1 108.464 276.144
2859 2860 2861 1 118.794 669.440
2860 2861 2862 1 123.066 418.400
2860 2861 2866 1 117.297 292.880
2861 2862 2863 1 112.574 669.440
2861 2862 2864 1 109.745 292.880
2861 2862 2865 1 110.254 292.880
2862 2861 2866 1 116.799 292.880
2863 2862 2864 1 107.865 292.880
2863 2862 2865 1 107.980 292.880
2864 2862 2865 1 108.297 276.144
2868 2869 2870 1 115.974 669.440
2869 2870 2871 1 122.748 418.400
2869 2870 2874 1 117.141 292.880
2870 2871 2872 1 109.799 292.880
2870 2871 2873 1 110.394 292.880
2871 2870 2874 1 116.431 292.880
2872 2871 2873 1 108.377 276.144
2876 2877 2878 1 116.182 669.440
2877 2878 2879 1 123.014 418.400
2877 2878 2882 1 117.665 292.880
2878 2879 2880 1 110.304 292.880
2878 2879 2881 1 109.909 292.880
2879 2878 2882 1 116.950 292.880
2880 2879 2881 1 108.464 276.144
2884 2885 2886 1 118.794 669.440
2885 2886 2887 1 123.066 418.400
2885 2886 2890 1 117.297 292.880
2886 2887 2888 1 109.745 292.880
2886 2887 2889 1 110.254 292.880
2887 2886 2890 1 116.799 292.880
2888 2887 2889 1 108.297 276.144
2892 2893 2894 1 115.974 669.440
2893 2894 2895 1 122.748 418.400
2893 2894 2899 1 117.141 292.880
2894 2895 2896 1 112.203 669.440
2894 2895 2897 1 109.799 292.880
2894 2895 2898 1 110.394 292.880
2895 2894 2899 1 116.431 292.880
2896 2895 2897 1 107.812 292.880
2896 2895 2898 1 108.141 292.880
2897 2895 2898 1 108.377 276.144
2901 2902 2903 1 116.182 669.440
2902 2903 2904 1 123.014 418.400
2902 2903 2907 1 117.665 292.880
2903 2904 2905 1 110.304 292.880
2903 2904 2906 1 109.909 292.880
2904 2903 2907 1 116.950 292.880
2905 2904 2906 1 108.464 276.144
2909 2910 2911 1 118.794 669.440
2910 2911 2912 1 123.066 418.400
2910 2911 2916 1 117.297 292.880
2911 2912 2913 1 112.574 669.440
2911 2912 2914 1 109.745 292.880
2911 2912 2915 1 110.254 292.880
2912 2911 2916 1 116.799 292.880
2913 2912 2914 1 107.865 292.880
2913 2912 2915 1 107.980 292.880
2914 2912 2915 1 108.297 276.144
2918 2919 2920 1 115.974 669.440
2919 2920 2921 1 122.748 418.400
2919 2920 2925 1 117.141 292.880
2920 2921 2922 1 112.203 669.440
2920 2921 2923 1 109.799 292.880
2920 2921 2924 1 110.394 292.880
2921 2920 2925 1 116.431 292.880
2922 2921 2923 1 107.812 292.880
2922 2921 2924 1 108.141 292.880
2923 2921 2924 1 108.377 276.144
2927 2928 2929 1 116.182 669.440
2928 2929 2930 1 123.014 418.400
2928 2929 2934 1 117.665 292.880
2929 2930 2931 1 112.146 669.440
2929 2930 2932 1 110.304 292.880
2929 2930 2933 1 109.909 292.880
2930 2929 2934 1 116.950 292.880
2931 2930 2932 1 108.147 292.880
2931 2930 2933 1 107.761 292.880
2932 2930 2933 1 108.464 276.144
2936 2937 2938 1 118.794 669.440
2937 2938 2939 1 123.066 418.400
2937 2938 2943 1 117.297 292.880
2938 2939 2940 1 112.574 669.440
2938 2939 2941 1 109.745 292.880
2938 2939 2942 1 110.254 292.880
2939 2938 2943 1 116.799 292.880
2940 2939 2941 1 107.865 292.880
2940 2939 2942 1 107.980 292.880
2941 2939 2942 1 108.297 276.144
2945 2946 2947 1 115.974 669.440
2946 2947 2948 1 122.748 418.400
2946 2947 2952 1 117.141 292.880
2947 2948 2949 1 112.203 669.440
2947 2948 2950 1 109.799 292.880
2947 2948 2951 1 110.394 292.880
2948 2947 2952 1 116.431 292.880
2949 2948 2950 1 107.812 292.880
2949 2948 2951 1 108.141 292.880
2950 2948 2951 1 108.377 276.144
2954 2955 2956 1 116.182 669.440
2955 2956 2957 1 123.014 418.400
2955 2956 2961 1 117.665 292.880
2956 2957 2958 1 112.146 669.440
2956 2957 2959 1 110.304 292.880
2956 2957 2960 1 109.909 292.880
2957 2956 2961 1 116.950 292.880
2958 2957 2959 1 108.147 292.880
2958 2957 2960 1 107.761 292.880
2959 2957 2960 1 108.464 276.144
2963 2964 2965 1 118.794 669.440
2964 2965 2966 1 123.066 418.400
2964 2965 2970 1 117.297 292.880
2965 2966 2967 1 112.574 669.440
2965 2966 2968 1 109.745 292.880
2965 2966 2969 1 110.254 292.880
2966 2965 2970 1 116.799 292.880
2967 2966 2968 1 107.865 292.880
2967 2966 2969 1 107.980 292.880
2968 2966 2969 1 108.297 276.144
2972 2973 2974 1 115.974 669.440
2973 2974 2975 1 122.748 418.400
2973 2974 2979 1 117.141 292.880
2974 2975 2976 1 112.203 669.440
2974 2975 2977 1 109.799 292.880
2974 2975 2978 1 110.394 292.880
2975 2974 2979 1 116.431 292.880
2976 2975 2977 1 107.812 292.880
2976 2975 2978 1 108.141 292.880
2977 2975 2978 1 108.377 276.144
2981 2982 2983 1 116.182 669.440
2982 2983 2984 1 123.014 418.400
2982 2983 2988 1 117.665 292.880
2983 2984 2985 1 112.146 669.440
2983 2984 2986 1 110.304 292.880
2983 2984 2987 1 109.909 292.880
2984 2983 2988 1 116.950 292.880
2985 2984 2986 1 108.147 292.880
2985 2984 2987 1 107.761 292.880
2986 2984 2987 1 108.464 276.144
2990 2991 2992 1 118.794 669.440
2991 2992 2993 1 123.066 418.400
2991 2992 2997 1 117.297 292.880
2992 2993 2994 1 112.574 669.440
2992 2993 2995 1 109.745 292.880
2992 2993 2996 1 110.254 292.880
2993 2992 2997 1 116.799 292.880
2994 2993 2995 1 107.865 292.880
2994 2993 2996 1 107.980 292.880
2995 2993 2996 1 108.297 276.144
2999 3000 3001 1 115.974 669.440
3000 3001 3002 1 122.748 418.400
3000 3001 3006 1 117.141 292.880
3001 3002 3003 1 112.203 669.440
3001 3002 3004 1 109.799 292.880
3001 3002 3005 1 110.394 292.880
3002 3001 3006 1 116.431 292.880
3003 3002 3004 1 107.812 292.880
3003 3002 3005 1 108.141 292.880
3004 3002 3005 1 108.377 276.144
3008 3009 3010 1 116.182 669.440
3009 3010 3011 1 123.014 418.400
3009 3010 3014 1 117.665 292.880
3010 3011 3012 1 110.304 292.880
3010 3011 3013 1 109.909 292.880
3011 3010 3014 1 116.950 292.880
3012 3011 3013 1 108.464 276.144
3016 3017 3018 1 118.794 669.440
3017 3018 3019 1 123.066 418.400
3017 3018 3022 1 117.297 292.880
3018 3019 3020 1 109.745 292.880
3018 3019 3021 1 110.254 292.880
3019 3018 3022 1 116.799 292.880
3020 3019 3021 1 108.297 276.144
3024 3025 3026 1 115.974 669.440
3025 3026 3027 1 122.748 418.400
3025 3026 3030 1 117.141 292.880
3026 3027 3028 1 109.799 292.880
3026 3027 3029 1 110.394 292.880
3027 3026 3030 1 116.431 292.880
3028 3027 3029 1 108.377 276.144
3032 3033 3034 1 116.182 669.440
3033 3034 3035 1 123.014 418.400
3033 3034 3039 1 117.665 292.880
3034 3035 3036 1 112.146 669.440
3034 3035 3037 1 110.304 292.880
3034 3035 3038 1 109.909 292.880
3035 3034 3039 1 116.950 292.880
3036 3035 3037 1 108.147 292.880
3036 3035 3038 1 107.761 292.880
3037 3035 3038 1 108.464 276.144
3041 3042 3043 1 118.794 669.440
3042 3043 3044 1 123.066 418.400
3042 3043 3047 1 117.297 292.880
3043 3044 3045 1 109.745 292.880
3043 3044 3046 1 110.254 292.880
3044 3043 3047 1 116.799 292.880
3045 3044 3046 1 108.297 276.144
3049 3050 3051 1 115.974 669.440
3050 3051 3052 1 122.748 418.400
3050 3051 3055 1 117.141 292.880
3051 3052 3053 1 109.799 292.880
3051 3052 3054 1 110.394 292.880
3052 3051 3055 1 116.431 292.880
3053 3052 3054 1 108.377 276.144
3057 3058 3059 1 116.182 669.440
3058 3059 3060 1 123.014 418.400
3058 3059 3064 1 117.665 292.880
3059 3060 3061 1 112.146 669.440
3059 3060 3062 1 110.304 292.880
3059 3060 3063 1 109.909 292.880
3060 3059 3064 1 116.950 292.880
3061 3060 3062 1 108.147 292.880
3061 3060 3063 1 107.761 292.880
3062 3060 3063 1 108.464 276.144
3066 3067 3068 1 118.794 669.440
3067 3068 3069 1 123.066 418.400
3067 3068 3073 1 117.297 292.880
3068 3069 3070 1 112.574 669.440
3068 3069 3071 1 109.745 292.880
3068 3069 3072 1 110.254 292.880
3069 3068 3073 1 116.799 292.880
3070 3069 3071 1 107.865 292.880
3070 3069 3072 1 107.980 292.880
3071 3069 3072 1 108.297 276.144
3075 3076 3077 1 115.974 669.440
3076 3077 3078 1 122.748 418.400
3076 3077 3082 1 117.141 292.880
3077 3078 3079 1 112.203 669.440
3077 3078 3080 1 109.799 292.880
3077 3078 3081 1 110.394 292.880
3078 3077 3082 1 116.431 292.880
3079 3078 3080 1 107.812 292.880
3079 3078 3081 1 108.141 292.880
3080 3078 3081 1 108.377 276.144
3084 3085 3086 1 116.182 669.440
3085 3086 3087 1 123.014 418.400
3085 3086 3092 1 117.665 292.880
3086 3087 3088 1 112.146 669.440
3086 3087 3090 1 110.304 292.880
3086 3087 3091 1 109.909 292.880
3087 3086 3092 1 116.950 292.880
3087 3088 3089 1 107.577 460.240
3088 3087 3090 1 108.147 292.880
3088 3087 3091 1 107.761 292.880
3090 3087 3091 1 108.464 276.144
3094 3095 3096 1 118.794 669.440
3095 3096 3097 1 123.066 418.400
3095 3096 3101 1 117.297 292.880
3096 3097 3098 1 112.574 669.440
3096 3097 3099 1 109.745 292.880
3096 3097 3100 1 110.254 292.880
3097 3096 3101 1 116.799 292.880
3098 3097 3099 1 107.865 292.880
3098 3097 3100 1 107.980 292.880
3099 3097 3100 1 108.297 276.144
3103 3104 3105 1 115.974 669.440
3104 3105 3106 1 122.748 418.400
3104 3105 3109 1 117.141 292.880
3105 3106 3107 1 109.799 292.880
3105 3106 3108 1 110.394 292.880
3106 3105 3109 1 116.431 292.880
3107 3106 3108 1 108.377 276.144
3111 3112 3113 1 116.182 669.440
3112 3113 3114 1 123.014 418.400
3112 3113 3118 1 117.665 292.880
3113 3114 3115 1 112.146 669.440
3113 3114 3116 1 110.304 292.880
3113 3114 3117 1 109.909 292.880
3114 3113 3118 1 116.950 292.880
3115 3114 3116 1 108.147 292.880
3115 3114 3117 1 107.761 292.880
3116 3114 3117 1 108.464 276.144
3120 3121 3122 1 118.794 669.440
3121 3122 3123 1 123.066 418.400
3121 3122 3127 1 117.297 292.880
3122 3123 3124 1 112.574 669.440
3122 3123 3125 1 109.745 292.880
3122 3123 3126 1 110.254 292.880
3123 3122 3127 1 116.799 292.880
3124 3123 3125 1 107.865 292.880
3124 3123 3126 1 107.980 292.880
3125 3123 3126 1 108.297 276.144
3129 3130 3131 1 115.974 669.440
3130 3131 3132 1 122.748 418.400
3130 3131 3136 1 117.141 292.880
3131 3132 3133 1 112.203 669.440
3131 3132 3134 1 109.799 292.880
3131 3132 3135 1 110.394 292.880
3132 3131 3136 1 116.431 292.880
3133 3132 3134 1 107.812 292.880
3133 3132 3135 1 108.141 292.880
3134 3132 3135 1 108.377 276.144
3138 3139 3140 1 116.182 669.440
3139 3140 3141 1 123.014 418.400
3139 3140 3144 1 117.665 292.880
3140 3141 3142 1 110.304 292.880
3140 3141 3143 1 109.909 292.880
3141 3140 3144 1 116.950 292.880
3142 3141 3143 1 108.464 276.144
3146 3147 3148 1 118.794 669.440
3147 3148 3149 1 123.066 418.400
3147 3148 3152 1 117.297 292.880
3148 3149 3150 1 109.745 292.880
3148 3149 3151 1 110.254 292.880
3149 3148 3152 1 116.799 292.880
3150 3149 3151 1 108.297 276.144
3154 3155 3156 1 115.974 669.440
3155 3156 3157 1 122.748 418.400
3155 3156 3160 1 117.141 292.880
3156 3157 3158 1 109.799 292.880
3156 3157 3159 1 110.394 292.880
3157 3156 3160 1 116.431 292.880
3158 3157 3159 1 108.377 276.144
3162 3163 3164 1 116.182 669.440
3163 3164 3165 1 123.014 418.400
3163 3164 3169 1 117.665 292.880
3164 3165 3166 1 112.146 669.440
3164 3165 3167 1 110.304 292.880
3164 3165 3168 1 109.909 292.880
3165 3164 3169 1 116.950 292.880
3166 3165 3167 1 108.147 292.880
3166 3165 3168 1 107.761 292.880
3167 3165 3168 1 108.464 276.144
3171 3172 3173 1 118.794 669.440
3172 3173 3174 1 123.066 418.400
3172 3173 3177 1 117.297 292.880
3173 3174 3175 1 109.745 292.880
3173 3174 3176 1 110.254 292.880
3174 3173 3177 1 116.799 292.880
3175 3174 3176 1 108.297 276.144
3179 3180 3181 1 115.974 669.440
3180 3181 3182 1 122.748 418.400
3180 3181 3186 1 117.141 292.880
3181 3182 3183 1 112.203 669.440
3181 3182 3184 1 109.799 292.880
3181 3182 3185 1 110.394 292.880
3182 3181 3186 1 116.431 292.880
3183 3182 3184 1 107.812 292.880
3183 3182 3185 1 108.141 292.880
3184 3182 3185 1 108.377 276.144
3188 3189 3190 1 116.182 669.440
3189 3190 3191 1 123.014 418.400
3189 3190 3196 1 117.665 292.880
3190 3191 3192 1 112.146 669.440
3190 3191 3194 1 110.304 292.880
3190 3191 3195 1 109.909 292.880
3191 3190 3196 1 116.950 292.880
3191 3192 3193 1 107.577 460.240
3192 3191 3194 1 108.147 292.880
3192 3191 3195 1 107.761 292.880
3194 3191 3195 1 108.464 276.144
3198 3199 3200 1 118.794 669.440
3199 3200 3201 1 123.066 418.400
3199 3200 3205 1 117.297 292.880
3200 3201 3202 1 112.574 669.440
3200 3201 3203 1 109.745 292.880
3200 3201 3204 1 110.254 292.880
3201 3200 3205 1 116.799 292.880
3202 3201 3203 1 107.865 292.880
3202 3201 3204 1 107.980 292.880
3203 3201 3204 1 108.297 276.144
3207 3208 3209 1 115.974 669.440
3208 3209 3210 1 122.748 418.400
3208 3209 3213 1 117.141 292.880
3209 3210 3211 1 109.799 292.880
3209 3210 3212 1 110.394 292.880
3210 3209 3213 1 116.431 292.880
3211 3210 3212 1 108.377 276.144
3215 3216 3217 1 116.182 669.440
3216 3217 3218 1 123.014 418.400
3216 3217 3222 1 117.665 292.880
3217 3218 3219 1 112.146 669.440
3217 3218 3220 1 110.304 292.880
3217 3218 3221 1 109.909 292.880
3218 3217 3222 1 116.950 292.880
3219 3218 3220 1 108.147 292.880
3219 3218 3221 1 107.761 292.880
3220 3218 3221 1 108.464 276.144
3224 3225 3226 1 118.794 669.440
3225 3226 3227 1 123.066 418.400
3225 3226 3230 1 117.297 292.880
3226 3227 3228 1 109.745 292.880
3226 3227 3229 1 110.254 292.880
3227 3226 3230 1 116.799 292.880
3228 3227 3229 1 108.297 276.144
3232 3233 3234 1 115.974 669.440
3233 3234 3235 1 122.748 418.400
3233 3234 3239 1 117.141 292.880
3234 3235 3236 1 112.203 669.440
3234 3235 3237 1 109.799 292.880
3234 3235 3238 1 110.394 292.880
3235 3234 3239 1 116.431 292.880
3236 3235 3237 1 107.812 292.880
3236 3235 3238 1 108.141 292.880
3237 3235 3238 1 108.377 276.144
3241 3242 3243 1 116.182 669.440
3242 3243 3244 1 123.014 418.400
3242 3243 3249 1 117.665 292.880
3243 3244 3245 1 112.146 669.440
3243 3244 3247 1 110.304 292.880
3243 3244 3248 1 109.909 292.880
3244 3243 3249 1 116.950 292.880
3244 3245 3246 1 107.577 460.240
3245 3244 3247 1 108.147 292.880
3245 3244 3248 1 107.761 292.880
3247 3244 3248 1 108.464 276.144
3251 3252 3253 1 118.794 669.440
3252 3253 3254 1 123.066 418.400
3252 3253 3258 1 117.297 292.880
3253 3254 3255 1 112.574 669.440
3253 3254 3256 1 109.745 292.880
3253 3254 3257 1 110.254 292.880
3254 3253 3258 1 116.799 292.880
3255 3254 3256 1 107.865 292.880
3255 3254 3257 1 107.980 292.880
3256 3254 3257 1 108.297 276.144
3260 3261 3262 1 115.974 669.440
3261 3262 3263 1 122.748 418.400
3261 3262 3267 1 117.141 292.880
3262 3263 3264 1 112.203 669.440
3262 3263 3265 1 109.799 292.880
3262 3263 3266 1 110.394 292.880
3263 3262 3267 1 116.431 292.880
3264 3263 3265 1 107.812 292.880
3264 3263 3266 1 108.141 292.880
3265 3263 3266 1 108.377 276.144
3269 3270 3271 1 116.182 669.440
3270 3271 3272 1 123.014 418.400
3270 3271 3276 1 117.665 292.880
3271 3272 3273 1 112.146 669.440
3271 3272 3274 1 110.304 292.880
3271 3272 3275 1 109.909 292.880
3272 3271 3276 1 116.950 292.880
3273 3272 3274 1 108.147 292.880
3273 3272 3275 1 107.761 292.880
3274 3272 3275 1 108.464 276.144
3278 3279 3280 1 118.794 669.440
3279 3280 3281 1 123.066 418.400
3279 3280 3285 1 117.297 292.880
3280 3281 3282 1 112.574 669.440
3280 3281 3283 1 109.745 292.880
3280 3281 3284 1 110.254 292.880
3281 3280 3285 1 116.799 292.880
3282 3281 3283 1 107.865 292.880
3282 3281 3284 1 107.980 292.880
3283 3281 3284 1 108.297 276.144
3287 3288 3289 1 115.974 669.440
3288 3289 3290 1 122.748 418.400
3288 3289 3294 1 117.141 292.880
3289 3290 3291 1 112.203 669.440
3289 3290 3292 1 109.799 292.880
3289 3290 3293 1 110.394 292.880
3290 3289 3294 1 116.431 292.880
3291 3290 3292 1 107.812 292.880
3291 3290 3293 1 108.141 292.880
3292 3290 3293 1 108.377 276.144
3296 3297 3298 1 116.182 669.440
3297 3298 3299 1 123.014 418.400
3297 3298 3303 1 117.665 292.880
3298 3299 3300 1 112.146 669.440
3298 3299 3301 1 110.304 292.880
3298 3299 3302 1 109.909 292.880
3299 3298 3303 1 116.950 292.880
3300 3299 3301 1 108.147 292.880
3300 3299 3302 1 107.761 292.880
3301 3299 3302 1 108.464 276.144
3305 3306 3307 1 118.794 669.440
3306 3307 3308 1 123.066 418.400
3306 3307 3312 1 117.297 292.880
3307 3308 3309 1 112.574 669.440
3307 3308 3310 1 109.745 292.880
3307 3308 3311 1 110.254 292.880
3308 3307 3312 1 116.799 292.880
3309 3308 3310 1 107.865 292.880
3309 3308 3311 1 107.980 292.880
3310 3308 3311 1 108.297 276.144
3314 3315 3316 1 115.974 669.440
3315 3316 3317 1 122.748 418.400
3315 3316 3320 1 117.141 292.880
3316 3317 3318 1 109.799 292.880
3316 3317 3319 1 110.394 292.880
3317 3316 3320 1 116.431 292.880
3318 3317 3319 1 108.377 276.144
3322 3323 3324 1 116.182 669.440
3323 3324 3325 1 123.014 418.400
3323 3324 3329 1 117.665 292.880
3324 3325 3326 1 112.146 669.440
3324 3325 3327 1 110.304 292.880
3324 3325 3328 1 109.909 292.880
3325 3324 3329 1 116.950 292.880
3326 3325 3327 1 108.147 292.880
3326 3325 3328 1 107.761 292.880
3327 3325 3328 1 108.464 276.144
3331 3332 3333 1 118.794 669.440
3332 3333 3334 1 123.066 418.400
3332 3333 3338 1 117.297 292.880
3333 3334 3335 1 112.574 669.440
3333 3334 3336 1 109.745 292.880
3333 3334 3337 1 110.254 292.880
3334 3333 3338 1 116.799 292.880
3335 3334 3336 1 107.865 292.880
3335 3334 3337 1 107.980 292.880
3336 3334 3337 1 108.297 276.144
3340 3341 3342 1 115.974 669.440
3341 3342 3343 1 122.748 418.400
3341 3342 3348 1 117.141 292.880
3342 3343 3344 1 112.203 669.440
3342 3343 3346 1 109.799 292.880
3342 3343 3347 1 110.394 292.880
3343 3342 3348 1 116.431 292.880
3343 3344 3345 1 107.831 460.240
3344 3343 3346 1 107.812 292.880
3344 3343 3347 1 108.141 292.880
3346 3343 3347 1 108.377 276.144
3350 3351 3352 1 116.182 669.440
3351 3352 3353 1 123.014 418.400
3351 3352 3358 1 117.665 292.880
3352 3353 3354 1 112.146 669.440
3352 3353 3356 1 110.304 292.880
3352 3353 3357 1 109.909 292.880
3353 3352 3358 1 116.950 292.880
3353 3354 3355 1 107.577 460.240
3354 3353 3356 1 108.147 292.880
3354 3353 3357 1 107.761 292.880
3356 3353 3357 1 108.464 276.144
3360 3361 3362 1 118.794 669.440
3361 3362 3363 1 123.066 418.400
3361 3362 3367 1 117.297 292.880
3362 3363 3364 1 112.574 669.440
3362 3363 3365 1 109.745 292.880
3362 3363 3366 1 110.254 292.880
3363 3362 3367 1 116.799 292.880
3364 3363 3365 1 107.865 292.880
3364 3363 3366 1 107.980 292.880
3365 3363 3366 1 108.297 276.144
3369 3370 3371 1 115.974 669.440
3370 3371 3372 1 122.748 418.400
3370 3371 3376 1 117.141 292.880
3371 3372 3373 1 112.203 669.440
3371 3372 3374 1 109.799 292.880
3371 3372 3375 1 110.394 292.880
3372 3371 3376 1 116.431 292.880
3373 3372 3374 1 107.812 292.880
3373 3372 3375 1 108.141 292.880
3374 3372 3375 1 108.377 276.144
3378 3379 3380 1 116.182 669.440
3379 3380 3381 1 123.014 418.400
3379 3380 3386 1 117.665 292.880
3380 3381 3382 1 112.146 669.440
3380 3381 3384 1 110.304 292.880
3380 3381 3385 1 109.909 292.880
3381 3380 3386 1 116.950 292.880
3381 3382 3383 1 107.577 460.240
3382 3381 3384 1 108.147 292.880
3382 3381 3385 1 107.761 292.880
3384 3381 3385 1 108.464 276.144
3388 3389 3390 1 118.794 669.440
3389 3390 3391 1 123.066 418.400
3389 3390 3395 1 117.297 292.880
3390 3391 3392 1 112.574 669.440
3390 3391 3393 1 109.745 292.880
3390 3391 3394 1 110.254 292.880
3391 3390 3395 1 116.799 292.880
3392 3391 3393 1 107.865 292.880
3392 3391 3394 1 107.980 292.880
3393 3391 3394 1 108.297 276.144
3397 3398 3399 1 115.974 669.440
3398 3399 3400 1 122.748 418.400
3398 3399 3404 1 117.141 292.880
3399 3400 3401 1 112.203 669.440
3399 3400 3402 1 109.799 292.880
3399 3400 3403 1 110.394 292.880
3400 3399 3404 1 116.431 292.880
3401 3400 3402 1 107.812 292.880
3401 3400 3403 1 108.141 292.880
3402 3400 3403 1 108.377 276.144
3406 3407 3408 1 116.182 669.440
3407 3408 3409 1 123.014 418.400
3407 3408 3413 1 117.665 292.880
3408 3409 3410 1 112.146 669.440
3408 3409 3411 1 110.304 292.880
3408 3409 3412 1 109.909 292.880
3409 3408 3413 1 116.950 292.880
3410 3409 3411 1 108.147 292.880
3410 3409 3412 1 107.761 292.880
3411 3409 3412 1 108.464 276.144
3415 3416 3417 1 118.794 669.440
3416 3417 3418 1 123.066 418.400
3416 3417 3422 1 117.297 292.880
3417 3418 3419 1 112.574 669.440
3417 3418 3420 1 109.745 292.880
3417 3418 3421 1 110.254 292.880
3418 3417 3422 1 116.799 292.880
3419 3418 3420 1 107.865 292.880
3419 3418 3421 1 107.980 292.880
3420 3418 3421 1 108.297 276.144
3424 3425 3426 1 115.974 669.440
3425 3426 3427 1 122.748 418.400
3425 3426 3431 1 117.141 292.880
3426 3427 3428 1 112.203 669.440
3426 3427 3429 1 109.799 292.880
3426 3427 3430 1 110.394 292.880
3427 3426 3431 1 116.431 292.880
3428 3427 3429 1 107.812 292.880
3428 3427 3430 1 108.141 292.880
3429 3427 3430 1 108.377 276.144
3433 3434 3435 1 116.182 669.440
3434 3435 3436 1 123.014 418.400
3434 3435 3440 1 117.665 292.880
3435 3436 3437 1 112.146 669.440
3435 3436 3438 1 110.304 292.880
3435 3436 3439 1 109.909 292.880
3436 3435 3440 1 116.950 292.880
3437 3436 3438 1 108.147 292.880
3437 3436 3439 1 107.761 292.880
3438 3436 3439 1 108.464 276.144
3442 3443 3444 1 118.794 669.440
3443 3444 3445 1 123.066 418.400
3443 3444 3449 1 117.297 292.880
3444 3445 3446 1 112.574 669.440
3444 3445 3447 1 109.745 292.880
3444 3445 3448 1 110.254 292.880
3445 3444 3449 1 116.799 292.880
3446 3445 3447 1 107.865 292.880
3446 3445 3448 1 107.980 292.880
3447 3445 3448 1 108.297 276.144
3451 3452 3453 1 115.974 669.440
3452 3453 3454 1 122.748 418.400
3452 3453 3458 1 117.141 292.880
3453 3454 3455 1 112.203 669.440
3453 3454 3456 1 109.799 292.880
3453 3454 3457 1 110.394 292.880
3454 3453 3458 1 116.431 292.880
3455 3454 3456 1 107.812 292.880
3455 3454 3457 1 108.141 292.880
3456 3454 3457 1 108.377 276.144
3460 3461 3462 1 116.182 669.440
3461 3462 3463 1 123.014 418.400
3461 3462 3468 1 117.665 292.880
3462 3463 3464 1 112.146 669.440
3462 3463 3466 1 110.304 292.880
3462 3463 3467 1 109.909 292.880
3463 3462 3468 1 116.950 292.880
3463 3464 3465 1 107.577 460.240
3464 3463 3466 1 108.147 292.880
3464 3463 3467 1 107.761 292.880
3466 3463 3467 1 108.464 276.144
3470 3471 3472 1 118.794 669.440
3471 3472 3473 1 123.066 418.400
3471 3472 3477 1 117.297 292.880
3472 3473 3474 1 112.574 669.440
3472 3473 3475 1 109.745 292.880
3472 3473 3476 1 110.254 292.880
3473 3472 3477 1 116.799 292.880
3474 3473 3475 1 107.865 292.880
3474 3473 3476 1 107.980 292.880
3475 3473 3476 1 108.297 276.144
3479 3480 3481 1 115.974 669.440
3480 3481 3482 1 122.748 418.400
3480 3481 3486 1 117.141 292.880
3481 3482 3483 1 112.203 669.440
3481 3482 3484 1 109.799 292.880
3481 3482 3485 1 110.394 292.880
3482 3481 3486 1 116.431 292.880
3483 3482 3484 1 107.812 292.880
3483 3482 3485 1 108.141 292.880
3484 3482 3485 1 108.377 276.144
3488 3489 3490 1 116.182 669.440
3489 3490 3491 1 123.014 418.400
3489 3490 3495 1 117.665 292.880
3490 3491 3492 1 112.146 669.440
3490 3491 3493 1 110.304 292.880
3490 3491 3494 1 109.909 292.880
3491 3490 3495 1 116.950 292.880
3492 3491 3493 1 108.147 292.880
3492 3491 3494 1 107.761 292.880
3493 3491 3494 1 108.464 276.144
3497 3498 3499 1 118.794 669.440
3498 3499 3500 1 123.066 418.400
3498 3499 3504 1 117.297 292.880
3499 3500 3501 1 112.574 669.440
3499 3500 3502 1 109.745 292.880
3499 3500 3503 1 110.254 292.880
3500 3499 3504 1 116.799 292.880
3501 3500 3502 1 107.865 292.880
3501 3500 3503 1 107.980 292.880
3502 3500 3503 1 108.297 276.144
3506 3507 3508 1 115.974 669.440
3507 3508 3509 1 122.748 418.400
3507 3508 3512 1 117.141 292.880
3508 3509 3510 1 109.799 292.880
3508 3509 3511 1 110.394 292.880
3509 3508 3512 1 116.431 292.880
3510 3509 3511 1 108.377 276.144
3514 3515 3516 1 116.182 669.440
3515 3516 3517 1 123.014 418.400
3515 3516 3521 1 117.665 292.880
3516 3517 3518 1 112.146 669.440
3516 3517 3519 1 110.304 292.880
3516 3517 3520 1 109.909 292.880
3517 3516 3521 1 116.950 292.880
3518 3517 3519 1 108.147 292.880
3518 3517 3520 1 107.761 292.880
3519 3517 3520 1 108.464 276.144
3523 3524 3525 1 118.794 669.440
3524 3525 3526 1 123.066 418.400
3524 3525 3530 1 117.297 292.880
3525 3526 3527 1 112.574 669.440
3525 3526 3528 1 109.745 292.880
3525 3526 3529 1 110.254 292.880
3526 3525 3530 1 116.799 292.880
3527 3526 3528 1 107.865 292.880
3527 3526 3529 1 107.980 292.880
3528 3526 3529 1 108.297 276.144
3532 3533 3534 1 115.974 669.440
3533 3534 3535 1 122.748 418.400
3533 3534 3539 1 117.141 292.880
3534 3535 3536 1 112.203 669.440
3534 3535 3537 1 109.799 292.880
3534 3535 3538 1 110.394 292.880
3535 3534 3539 1 116.431 292.880
3536 3535 3537 1 107.812 292.880
3536 3535 3538 1 108.141 292.880
3537 3535 3538 1 108.377 276.144
3541 3542 3543 1 116.182 669.440
3542 3543 3544 1 123.014 418.400
3542 3543 3548 1 117.665 292.880
3543 3544 3545 1 112.146 669.440
3543 3544 3546 1 110.304 292.880
3543 3544 3547 1 109.909 292.880
3544 3543 3548 1 116.950 292.880
3545 3544 3546 1 108.147 292.880
3545 3544 3547 1 107.761 292.880
3546 3544 3547 1 108.464 276.144
3550 3551 3552 1 118.794 669.440
3551 3552 3553 1 123.066 418.400
3551 3552 3557 1 117.297 292.880
3552 3553 3554 1 112.574 669.440
3552 3553 3555 1 109.745 292.880
3552 3553 3556 1 110.254 292.880
3553 3552 3557 1 116.799 292.880
3554 3553 3555 1 107.865 292.880
3554 3553 3556 1 107.980 292.880
3555 3553 3556 1 108.297 276.144
3559 3560 3561 1 115.974 669.440
3560 3561 3562 1 122.748 418.400
3560 3561 3566 1 117.141 292.880
3561 3562 3563 1 112.203 669.440
3561 3562 3564 1 109.799 292.880
3561 3562 3565 1 110.394 292.880
3562 3561 3566 1 116.431 292.880
3563 3562 3564 1 107.812 292.880
3563 3562 3565 1 108.141 292.880
3564 3562 3565 1 108.377 276.144
3568 3569 3570 1 116.182 669.440
3569 3570 3571 1 123.014 418.400
3569 3570 3574 1 117.665 292.880
3570 3571 3572 1 110.304 292.880
3570 3571 3573 1 109.909 292.880
3571 3570 3574 1 116.950 292.880
3572 3571 3573 1 108.464 276.144
3576 3577 3578 1 118.794 669.440
3577 3578 3579 1 123.066 418.400
3577 3578 3582 1 117.297 292.880
3578 3579 3580 1 109.745 292.880
3578 3579 3581 1 110.254 292.880
3579 3578 3582 1 116.799 292.880
3580 3579 3581 1 108.297 276.144
3584 3585 3586 1 115.974 669.440
3585 3586 3587 1 122.748 418.400
3585 3586 3591 1 117.141 292.880
3586 3587 3588 1 112.203 669.440
3586 3587 3589 1 109.799 292.880
3586 3587 3590 1 110.394 292.880
3587 3586 3591 1 116.431 292.880
3588 3587 3589 1 107.812 292.880
3588 3587 3590 1 108.141 292.880
3589 3587 3590 1 108.377 276.144
3593 3594 3595 1 116.182 669.440
3594 3595 3596 1 123.014 418.400
3594 3595 3599 1 117.665 292.880
3595 3596 3597 1 110.304 292.880
3595 3596 3598 1 109.909 292.880
3596 3595 3599 1 116.950 292.880
3597 3596 3598 1 108.464 276.144
3601 3602 3603 1 118.794 669.440
3602 3603 3604 1 123.066 418.400
3602 3603 3607 1 117.297 292.880
3603 3604 3605 1 109.745 292.880
3603 3604 3606 1 110.254 292.880
3604 3603 3607 1 116.799 292.880
3605 3604 3606 1 108.297 276.144
3609 3610 3611 1 115.974 669.440
3610 3611 3612 1 122.748 418.400
3610 3611 3616 1 117.141 292.880
3611 3612 3613 1 112.203 669.440
3611 3612 3614 1 109.799 292.880
3611 3612 3615 1 110.394 292.880
3612 3611 3616 1 116.431 292.880
3613 3612 3614 1 107.812 292.880
3613 3612 3615 1 108.141 292.880
3614 3612 3615 1 108.377 276.144
3618 3619 3620 1 116.182 669.440
3619 3620 3621 1 123.014 418.400
3619 3620 3624 1 117.665 292.880
3620 3621 3622 1 110.304 292.880
3620 3621 3623 1 109.909 292.880
3621 3620 3624 1 116.950 292.880
3622 3621 3623 1 108.464 276.144
3626 3627 3628 1 118.794 669.440
3627 3628 3629 1 123.066 418.400
3627 3628 3633 1 117.297 292.880
3628 3629 3630 1 112.574 669.440
3628 3629 3631 1 109.745 292.880
3628 3629 3632 1 110.254 292.880
3629 3628 3633 1 116.799 292.880
3630 3629 3631 1 107.865 292.880
3630 3629 3632 1 107.980 292.880
3631 3629 3632 1 108.297 276.144
3635 3636 3637 1 115.974 669.440
3636 3637 3638 1 122.748 418.400
3636 3637 3641 1 117.141 292.880
3637 3638 3639 1 109.799 292.880
3637 3638 3640 1 110.394 292.880
3638 3637 3641 1 116.431 292.880
3639 3638 3640 1 108.377 276.144
3643 3644 3645 1 116.182 669.440
3644 3645 3646 1 123.014 418.400
3644 3645 3650 1 117.665 292.880
3645 3646 3647 1 112.146 669.440
3645 3646 3648 1 110.304 292.880
3645 3646 3649 1 109.909 292.880
3646 3645 3650 1 116.950 292.880
3647 3646 3648 1 108.147 292.880
3647 3646 3649 1 107.761 292.880
3648 3646 3649 1 108.464 276.144
3652 3653 3654 1 118.794 669.440
3653 3654 3655 1 123.066 418.400
3653 3654 3658 1 117.297 292.880
3654 3655 3656 1 109.745 292.880
3654 3655 3657 1 110.254 292.880
3655 3654 3658 1 116.799 292.880
3656 3655 3657 1 108.297 276.144
3660 3661 3662 1 115.974 669.440
3661 3662 3663 1 122.748 418.400
3661 3662 3668 1 117.141 292.880
3662 3663 3664 1 112.203 669.440
3662 3663 3666 1 109.799 292.880
3662 3663 3667 1 110.394 292.880
3663 3662 3668 1 116.431 292.880
3663 3664 3665 1 107.831 460.240
3664 3663 3666 1 107.812 292.880
3664 3663 3667 1 108.141 292.880
3666 3663 3667 1 108.377 276.144
3670 3671 3672 1 116.182 669.440
3671 3672 3673 1 123.014 418.400
3671 3672 3677 1 117.665 292.880
3672 3673 3674 1 112.146 669.440
3672 3673 3675 1 110.304 292.880
3672 3673 3676 1 109.909 292.880
3673 3672 3677 1 116.950 292.880
3674 3673 3675 1 108.147 292.880
3674 3673 3676 1 107.761 292.880
3675 3673 3676 1 108.464 276.144
3679 3680 3681 1 118.794 669.440
3680 3681 3682 1 123.066 418.400
3680 3681 3686 1 117.297 292.880
3681 3682 3683 1 112.574 669.440
3681 3682 3684 1 109.745 292.880
3681 3682 3685 1 110.254 292.880
3682 3681 3686 1 116.799 292.880
3683 3682 3684 1 107.865 292.880
3683 3682 3685 1 107.980 292.880
3684 3682 3685 1 108.297 276.144
3688 3689 3690 1 115.974 669.440
3689 3690 3691 1 122.748 418.400
3689 3690 3695 1 117.141 292.880
3690 3691 3692 1 112.203 669.440
3690 3691 3693 1 109.799 292.880
3690 3691 3694 1 110.394 292.880
3691 3690 3695 1 116.431 292.880
3692 3691 3693 1 107.812 292.880
3692 3691 3694 1 108.141 292.880
3693 3691 3694 1 108.377 276.144
3697 3698 3699 1 116.182 669.440
3698 3699 3700 1 123.014 418.400
3698 3699 3704 1 117.665 292.880
3699 3700 3701 1 112.146 669.440
3699 3700 3702 1 110.304 292.880
3699 3700 3703 1 109.909 292.880
3700 3699 3704 1 116.950 292.880
3701 3700 3702 1 108.147 292.880
3701 3700 3703 1 107.761 292.880
3702 3700 3703 1 108.464 276.144
3706 3707 3708 1 118.794 669.440
3707 3708 3709 1 123.066 418.400
3707 3708 3712 1 117.297 292.880
3708 3709 3710 1 109.745 292.880
3708 3709 3711 1 110.254 292.880
3709 3708 3712 1 116.799 292.880
3710 3709 3711 1 108.297 276.144
3714 3715 3716 1 115.974 669.440
3715 3716 3717 1 122.748 418.400
3715 3716 3721 1 117.141 292.880
3716 3717 3718 1 112.203 669.440
3716 3717 3719 1 109.799 292.880
3716 3717 3720 1 110.394 292.880
3717 3716 3721 1 116.431 292.880
3718 3717 3719 1 107.812 292.880
3718 3717 3720 1 108.141 292.880
3719 3717 3720 1 108.377 276.144
3723 3724 3725 1 116.182 669.440
3724 3725 3726 1 123.014 418.400
3724 3725 3730 1 117.665 292.880
3725 3726 3727 1 112.146 669.440
3725 3726 3728 1 110.304 292.880
3725 3726 3729 1 109.909 292.880
3726 3725 3730 1 116.950 292.880
3727 3726 3728 1 108.147 292.880
3727 3726 3729 1 107.761 292.880
3728 3726 3729 1 108.464 276.144
3732 3733 3734 1 118.794 669.440
3733 3734 3735 1 123.066 418.400
3733 3734 3739 1 117.297 292.880
3734 3735 3736 1 112.574 669.440
3734 3735 3737 1 109.745 292.880
3734 3735 3738 1 110.254 292.880
3735 3734 3739 1 116.799 292.880
3736 3735 3737 1 107.865 292.880
3736 3735 3738 1 107.980 292.880
3737 3735 3738 1 108.297 276.144
3741 3742 3743 1 115.974 669.440
3742 3743 3744 1 122.748 418.400
3742 3743 3748 1 117.141 292.880
3743 3744 3745 1 112.203 669.440
3743 3744 3746 1 109.799 292.880
3743 3744 3747 1 110.394 292.880
3744 3743 3748 1 116.431 292.880
3745 3744 3746 1 107.812 292.880
3745 3744 3747 1 108.141 292.880
3746 3744 3747 1 108.377 276.144
3750 3751 3752 1 116.182 669.440
3751 3752 3753 1 123.014 418.400
3751 3752 3756 1 117.665 292.880
3752 3753 3754 1 110.304 292.880
3752 3753 3755 1 109.909 292.880
3753 3752 3756 1 116.950 292.880
3754 3753 3755 1 108.464 276.144
3758 3759 3760 1 118.794 669.440
3759 3760 3761 1 123.066 418.400
3759 3760 3765 1 117.297 292.880
3760 3761 3762 1 112.574 669.440
3760 3761 3763 1 109.745 292.880
3760 3761 3764 1 110.254 292.880
3761 3760 3765 1 116.799 292.880
3762 3761 3763 1 107.865 292.880
3762 3761 3764 1 107.980 292.880
3763 3761 3764 1 108.297 276.144
3767 3768 3769 1 115.974 669.440
3768 3769 3770 1 122.748 418.400
3768 3769 3775 1 117.141 292.880
3769 3770 3771 1 112.203 669.440
3769 3770 3773 1 109.799 292.880
3769 3770 3774 1 110.394 292.880
3770 3769 3775 1 116.431 292.880
3770 3771 3772 1 107.831 460.240
3771 3770 3773 1 107.812 292.880
3771 3770 3774 1 108.141 292.880
3773 3770 3774 1 108.377 276.144
3777 3778 3779 1 116.182 669.440
3778 3779 3780 1 123.014 418.400
3778 3779 3784 1 117.665 292.880
3779 3780 3781 1 112.146 669.440
3779 3780 3782 1 110.304 292.880
3779 3780 3783 1 109.909 292.880
3780 3779 3784 1 116.950 292.880
3781 3780 3782 1 108.147 292.880
3781 3780 3783 1 107.761 292.880
3782 3780 3783 1 108.464 276.144
3786 3787 3788 1 118.794 669.440
3787 3788 3789 1 123.066 418.400
3787 3788 3793 1 117.297 292.880
3788 3789 3790 1 112.574 669.440
3788 3789 3791 1 109.745 292.880
3788 3789 3792 1 110.254 292.880
3789 3788 3793 1 116.799 292.880
3790 3789 3791 1 107.865 292.880
3790 3789 3792 1 107.980 292.880
3791 3789 3792 1 108.297 276.144
3795 3796 3797 1 115.974 669.440
3796 3797 3798 1 122.748 418.400
3796 3797 3801 1 117.141 292.880
3797 3798 3799 1 109.799 292.880
3797 3798 3800 1 110.394 292.880
3798 3797 3801 1 116.431 292.880
3799 3798 3800 1 108.377 276.144
3803 3804 3805 1 116.182 669.440
3804 3805 3806 1 123.014 418.400
3804 3805 3810 1 117.665 292.880
3805 3806 3807 1 112.146 669.440
3805 3806 3808 1 110.304 292.880
3805 3806 3809 1 109.909 292.880
3806 3805 3810 1 116.950 292.880
3807 3806 3808 1 108.147 292.880
3807 3806 3809 1 107.761 292.880
3808 3806 3809 1 108.464 276.144
3812 3813 3814 1 118.794 669.440
3813 3814 3815 1 123.066 418.400
3813 3814 3818 1 117.297 292.880
3814 3815 3816 1 109.745 292.880
3814 3815 3817 1 110.254 292.880
3815 3814 3818 1 116.799 292.880
3816 3815 3817 1 108.297 276.144
3820 3821 3822 1 115.974 669.440
3821 3822 3823 1 122.748 418.400
3821 3822 3827 1 117.141 292.880
3822 3823 3824 1 112.203 669.440
3822 3823 3825 1 109.799 292.880
3822 3823 3826 1 110.394 292.880
3823 3822 3827 1 116.431 292.880
3824 3823 3825 1 107.812 292.880
3824 3823 3826 1 108.141 292.880
3825 3823 3826 1 108.377 276.144
3829 3830 3831 1 116.182 669.440
3830 3831 3832 1 123.014 418.400
3830 3831 3835 1 117.665 292.880
3831 3832 3833 1 110.304 292.880
3831 3832 3834 1 109.909 292.880
3832 3831 3835 1 116.950 292.880
3833 3832 3834 1 108.464 276.144
3837 3838 3839 1 118.794 669.440
3838 3839 3840 1 123.066 418.400
3838 3839 3844 1 117.297 292.880
3839 3840 3841 1 112.574 669.440
3839 3840 3842 1 109.745 292.880
3839 3840 3843 1 110.254 292.880
3840 3839 3844 1 116.799 292.880
3841 3840 3842 1 107.865 292.880
3841 3840 3843 1 107.980 292.880
3842 3840 3843 1 108.297 276.144
3846 3847 3848 1 115.974 669.440
3847 3848 3849 1 122.748 418.400
3847 3848 3853 1 117.141 292.880
3848 3849 3850 1 112.203 669.440
3848 3849 3851 1 109.799 292.880
3848 3849 3852 1 110.394 292.880
3849 3848 3853 1 116.431 292.880
3850 3849 3851 1 107.812 292.880
3850 3849 3852 1 108.141 292.880
3851 3849 3852 1 108.377 276.144
3855 3856 3857 1 116.182 669.440
3856 3857 3858 1 123.014 418.400
3856 3857 3862 1 117.665 292.880
3857 3858 3859 1 112.146 669.440
3857 3858 3860 1 110.304 292.880
3857 3858 3861 1 109.909 292.880
3858 3857 3862 1 116.950 292.880
3859 3858 3860 1 108.147 292.880
3859 3858 3861 1 107.761 292.880
3860 3858 3861 1 108.464 276.144
3864 3865 3866 1 118.794 669.440
3865 3866 3867 1 123.066 418.400
3865 3866 3870 1 117.297 292.880
3866 3867 3868 1 109.745 292.880
3866 3867 3869 1 110.254 292.880
3867 3866 3870 1 116.799 292.880
3868 3867 3869 1 108.297 276.144
3872 3873 3874 1 115.974 669.440
3873 3874 3875 1 122.748 418.400
3873 3874 3879 1 117.141 292.880
3874 3875 3876 1 112.203 669.440
3874 3875 3877 1 109.799 292.880
3874 3875 3878 1 110.394 292.880
3875 3874 3879 1 116.431 292.880
3876 3875 3877 1 107.812 292.880
3876 3875 3878 1 108.141 292.880
3877 3875 3878 1 108.377 276.144
3881 3882 3883 1 116.182 669.440
3882 3883 3884 1 123.014 418.400
3882 3883 3889 1 117.665 292.880
3883 3884 3885 1 112.146 669.440
3883 3884 3887 1 110.304 292.880
3883 3884 3888 1 109.909 292.880
3884 3883 3889 1 116.950 292.880
3884 3885 3886 1 107.577 460.240
3885 3884 3887 1 108.147 292.880
3885 3884 3888 1 107.761 292.880
3887 3884 3888 1 108.464 276.144
3891 3892 3893 1 118.794 669.440
3892 3893 3894 1 123.066 418.400
3892 3893 3898 1 117.297 292.880
3893 3894 3895 1 112.574 669.440
3893 3894 3896 1 109.745 292.880
3893 3894 3897 1 110.254 292.880
3894 3893 3898 1 116.799 292.880
3895 3894 3896 1 107.865 292.880
3895 3894 3897 1 107.980 292.880
3896 3894 3897 1 108.297 276.144
3900 3901 3902 1 115.974 669.440
3901 3902 3903 1 122.748 418.400
3901 3902 3908 1 117.141 292.880
3902 3903 3904 1 112.203 669.440
3902 3903 3906 1 109.799 292.880
3902 3903 3907 1 110.394 292.880
3903 3902 3908 1 116.431 292.880
3903 3904 3905 1 107.831 460.240
3904 3903 3906 1 107.812 292.880
3904 3903 3907 1 108.141 292.880
3906 3903 3907 1 108.377 276.144
3910 3911 3912 1 116.182 669.440
3911 3912 3913 1 123.014 418.400
3911 3912 3916 1 117.665 292.880
3912 3913 3914 1 110.304 292.880
3912 3913 3915 1 109.909 292.880
3913 3912 3916 1 116.950 292.880
3914 3913 3915 1 108.464 276.144
3918 3919 3920 1 118.794 669.440
3919 3920 3921 1 123.066 418.400
3919 3920 3925 1 117.297 292.880
3920 3921 3922 1 112.574 669.440
3920 3921 3923 1 109.745 292.880
3920 3921 3924 1 110.254 292.880
3921 3920 3925 1 116.799 292.880
3922 3921 3923 1 107.865 292.880
3922 3921 3924 1 107.980 292.880
3923 3921 3924 1 108.297 276.144
3927 3928 3929 1 115.974 669.440
3928 3929 3930 1 122.748 418.400
3928 3929 3934 1 117.141 292.880
3929 3930 3931 1 112.203 669.440
3929 3930 3932 1 109.799 292.880
3929 3930 3933 1 110.394 292.880
3930 3929 3934 1 116.431 292.880
3931 3930 3932 1 107.812 292.880
3931 3930 3933 1 108.141 292.880
3932 3930 3933 1 108.377 276.144
3936 3937 3938 1 116.182 669.440
3937 3938 3939 1 123.014 418.400
3937 3938 3943 1 117.665 292.880
3938 3939 3940 1 112.146 669.440
3938 3939 3941 1 110.304 292.880
3938 3939 3942 1 109.909 292.880
3939 3938 3943 1 116.950 292.880
3940 3939 3941 1 108.147 292.880
3940 3939 3942 1 107.761 292.880
3941 3939 3942 1 108.464 276.144
3945 3946 3947 1 118.794 669.440
3946 3947 3948 1 123.066 418.400
3946 3947 3952 1 117.297 292.880
3947 3948 3949 1 112.574 669.440
3947 3948 3950 1 109.745 292.880
3947 3948 3951 1 110.254 292.880
3948 3947 3952 1 116.799 292.880
3949 3948 3950 1 107.865 292.880
3949 3948 3951 1 107.980 292.880
3950 3948 3951 1 108.297 276.144
3954 3955 3956 1 115.974 669.440
3955 3956 3957 1 122.748 418.400
3955 3956 3961 1 117.141 292.880
3956 3957 3958 1 112.203 669.440
3956 3957 3959 1 109.799 292.880
3956 3957 3960 1 110.394 292.880
3957 3956 3961 1 116.431 292.880
3958 3957 3959 1 107.812 292.880
3958 3957 3960 1 108.141 292.880
3959 3957 3960 1 108.377 276.144
3963 3964 3965 1 116.182 669.440
3964 3965 3966 1 123.014 418.400
3964 3965 3971 1 117.665 292.880
3965 3966 3967 1 112.146 669.440
3965 3966 3969 1 110.304 292.880
3965 3966 3970 1 109.909 292.880
3966 3965 3971 1 116.950 292.880
3966 3967 3968 1 107.577 460.240
3967 3966 3969 1 108.147 292.880
3967 3966 3970 1 107.761 292.880
3969 3966 3970 1 108.464 276.144
3973 3974 3975 1 118.794 669.440
3974 3975 3976 1 123.066 418.400
3974 3975 3979 1 117.297 292.880
3975 3976 3977 1 109.745 292.880
3975 3976 3978 1 110.254 292.880
3976 3975 3979 1 116.799 292.880
3977 3976 3978 1 108.297 276.144
3981 3982 3983 1 115.974 669.440
3982 3983 3984 1 122.748 418.400
3982 3983 3987 1 117.141 292.880
3983 3984 3985 1 109.799 292.880
3983 3984 3986 1 110.394 292.880
3984 3983 3987 1 116.431 292.880
3985 3984 3986 1 108.377 276.144
3989 3990 3991 1 116.182 669.440
3990 3991 3992 1 123.014 418.400
3990 3991 3996 1 117.665 292.880
3991 3992 3993 1 112.146 669.440
3991 3992 3994 1 110.304 292.880
3991 3992 3995 1 109.909 292.880
3992 3991 3996 1 116.950 292.880
3993 3992 3994 1 108.147 292.880
3993 3992 3995 1 107.761 292.880
3994 3992 3995 1 108.464 276.144
3998 3999 4000 1 118.794 669.440
3999 4000 4001 1 123.066 418.400
3999 4000 4005 1 117.297 292.880
4000 4001 4002 1 112.574 669.440
4000 4001 4003 1 109.745 292.880
4000 4001 4004 1 110.254 292.880
4001 4000 4005 1 116.799 292.880
4002 4001 4003 1 107.865 292.880
4002 4001 4004 1 107.980 292.880
4003 4001 4004 1 108.297 276.144
4007 4008 4009 1 115.974 669.440
4008 4009 4010 1 122.748 418.400
4008 4009 4014 1 117.141 292.880
4009 4010 4011 1 112.203 669.440
4009 4010 4012 1 109.799 292.880
4009 4010 4013 1 110.394 292.880
4010 4009 4014 1 116.431 292.880
4011 4010 4012 1 107.812 292.880
4011 4010 4013 1 108.141 292.880
4012 4010 4013 1 108.377 276.144
4016 4017 4018 1 116.182 669.440
4017 4018 4019 1 123.014 418.400
4017 4018 4023 1 117.665 292.880
4018 4019 4020 1 112.146 669.440
4018 4019 4021 1 110.304 292.880
4018 4019 4022 1 109.909 292.880
4019 4018 4023 1 116.950 292.880
4020 4019 4021 1 108.147 292.880
4020 4019 4022 1 107.761 292.880
4021 4019 4022 1 108.464 276.144
4025 4026 4027 1 118.794 669.440
4026 4027 4028 1 123.066 418.400
4026 4027 4032 1 117.297 292.880
4027 4028 4029 1 112.574 669.440
4027 4028 4030 1 109.745 292.880
4027 4028 4031 1 110.254 292.880
4028 4027 4032 1 116.799 292.880
4029 4028 4030 1 107.865 292.880
4029 4028 4031 1 107.980 292.880
4030 4028 4031 1 108.297 276.144
4034 4035 4036 1 115.974 669.440
4035 4036 4037 1 122.748 418.400
4035 4036 4041 1 117.141 292.880
4036 4037 4038 1 112.203 669.440
4036 4037 4039 1 109.799 292.880
4036 4037 4040 1 110.394 292.880
4037 4036 4041 1 116.431 292.880
4038 4037 4039 1 107.812 292.880
4038 4037 4040 1 108.141 292.880
4039 4037 4040 1 108.377 276.144
4043 4044 4045 1 116.182 669.440
4044 4045 4046 1 123.014 418.400
4044 4045 4049 1 117.665 292.880
4045 4046 4047 1 110.304 292.880
4045 4046 4048 1 109.909 292.880
4046 4045 4049 1 116.950 292.880
4047 4046 4048 1 108.464 276.144
4051 4052 4053 1 118.794 669.440
4052 4053 4054 1 123.066 418.400
4052 4053 4058 1 117.297 292.880
4053 4054 4055 1 112.574 669.440
4053 4054 4056 1 109.745 292.880
4053 4054 4057 1 110.254 292.880
4054 4053 4058 1 116.799 292.880
4055 4054 4056 1 107.865 292.880
4055 4054 4057 1 107.980 292.880
4056 4054 4057 1 108.297 276.144
4060 4061 4062 1 115.974 669.440
4061 4062 4063 1 122.748 418.400
4061 4062 4067 1 117.141 292.880
4062 4063 4064 1 112.203 669.440
4062 4063 4065 1 109.799 292.880
4062 4063 4066 1 110.394 292.880
4063 4062 4067 1 116.431 292.880
4064 4063 4065 1 107.812 292.880
4064 4063 4066 1 108.141 292.880
4065 4063 4066 1 108.377 276.144
4069 4070 4071 1 116.182 669.440
4070 4071 4072 1 123.014 418.400
4070 4071 4075 1 117.665 292.880
4071 4072 4073 1 110.304 292.880
4071 4072 4074 1 109.909 292.880
4072 4071 4075 1 116.950 292.880
4073 4072 4074 1 108.464 276.144
4077 4078 4079 1 118.794 669.440
4078 4079 4080 1 123.066 418.400
4078 4079 4083 1 117.297 292.880
4079 4080 4081 1 109.745 292.880
4079 4080 4082 1 110.254 292.880
4080 4079 4083 1 116.799 292.880
4081 4080 4082 1 108.297 276.144
4085 4086 4087 1 115.974 669.440
4086 4087 4088 1 122.748 418.400
4086 4087 4093 1 117.141 292.880
4087 4088 4089 1 112.203 669.440
4087 4088 4091 1 109.799 292.880
4087 4088 4092 1 110.394 292.880
4088 4087 4093 1 116.431 292.880
4088 4089 4090 1 107.831 460.240
4089 4088 4091 1 107.812 292.880
4089 4088 4092 1 108.141 292.880
4091 4088 4092 1 108.377 276.144
4095 4096 4097 1 116.182 669.440
4096 4097 4098 1 123.014 418.400
4096 4097 4102 1 117.665 292.880
4097 4098 4099 1 112.146 669.440
4097 4098 4100 1 110.304 292.880
4097 4098 4101 1 109.909 292.880
4098 4097 4102 1 116.950 292.880
4099 4098 4100 1 108.147 292.880
4099 4098 4101 1 107.761 292.880
4100 4098 4101 1 108.464 276.144
4104 4105 4106 1 118.794 669.440
4105 4106 4107 1 123.066 418.400
4105 4106 4111 1 117.297 292.880
4106 4107 4108 1 112.574 669.440
4106 4107 4109 1 109.745 292.880
4106 4107 4110 1 110.254 292.880
4107 4106 4111 1 116.799 292.880
4108 4107 4109 1 107.865 292.880
4108 4107 4110 1 107.980 292.880
4109 4107 4110 1 108.297 276.144
4113 4114 4115 1 115.974 669.440
4114 4115 4116 1 122.748 418.400
4114 4115 4120 1 117.141 292.880
4115 4116 4117 1 112.203 669.440
4115 4116 4118 1 109.799 292.880
4115 4116 4119 1 110.394 292.880
4116 4115 4120 1 116.431 292.880
4117 4116 4118 1 107.812 292.880
4117 4116 4119 1 108.141 292.880
4118 4116 4119 1 108.377 276.144
4122 4123 4124 1 116.182 669.440
4123 4124 4125 1 123.014 418.400
4123 4124 4129 1 117.665 292.880
4124 4125 4126 1 112.146 669.440
4124 4125 4127 1 110.304 292.880
4124 4125 4128 1 109.909 292.880
4125 4124 4129 1 116.950 292.880
4126 4125 4127 1 108.147 292.880
4126 4125 4128 1 107.761 292.880
4127 4125 4128 1 108.464 276.144
4131 4132 4133 1 118.794 669.440
4132 4133 4134 1 123.066 418.400
4132 4133 4137 1 117.297 292.880
4133 4134 4135 1 109.745 292.880
4133 4134 4136 1 110.254 292.880
4134 4133 4137 1 116.799 292.880
4135 4134 4136 1 108.297 276.144
4139 4140 4141 1 115.974 669.440
4140 4141 4142 1 122.748 418.400
4140 4141 4146 1 117.141 292.880
4141 4142 4143 1 112.203 669.440
4141 4142 4144 1 109.799 292.880
4141 4142 4145 1 110.394 292.880
4142 4141 4146 1 116.431 292.880
4143 4142 4144 1 107.812 292.880
4143 4142 4145 1 108.141 292.880
4144 4142 4145 1 108.377 276.144
4148 4149 4150 1 116.182 669.440
4149 4150 4151 1 123.014 418.400
4149 4150 4154 1 117.665 292.880
4150 4151 4152 1 110.304 292.880
4150 4151 4153 1 109.909 292.880
4151 4150 4154 1 116.950 292.880
4152 4151 4153 1 108.464 276.144
4156 4157 4158 1 118.794 669.440
4157 4158 4159 1 123.066 418.400
4157 4158 4163 1 117.297 292.880
4158 4159 4160 1 112.574 669.440
4158 4159 4161 1 109.745 292.880
4158 4159 4162 1 110.254 292.880
4159 4158 4163 1 116.799 292.880
4160 4159 4161 1 107.865 292.880
4160 4159 4162 1 107.980 292.880
4161 4159 4162 1 108.297 276.144
4165 4166 4167 1 115.974 669.440
4166 4167 4168 1 122.748 418.400
4166 4167 4171 1 117.141 292.880
4167 4168 4169 1 109.799 292.880
4167 4168 4170 1 110.394 292.880
4168 4167 4171 1 116.431 292.880
4169 4168 4170 1 108.377 276.144
4173 4174 4175 1 116.182 669.440
4174 4175 4176 1 123.014 418.400
4174 4175 4181 1 117.665 292.880
4175 4176 4177 1 112.146 669.440
4175 4176 4179 1 110.304 292.880
4175 4176 4180 1 109.909 292.880
4176 4175 4181 1 116.950 292.880
4176 4177 4178 1 107.577 460.240
4177 4176 4179 1 108.147 292.880
4177 4176 4180 1 107.761 292.880
4179 4176 4180 1 108.464 276.144
4183 4184 4185 1 118.794 669.440
4184 4185 4186 1 123.066 418.400
4184 4185 4190 1 117.297 292.880
4185 4186 4187 1 112.574 669.440
4185 4186 4188 1 109.745 292.880
4185 4186 4189 1 110.254 292.880
4186 4185 4190 1 116.799 292.880
4187 4186 4188 1 107.865 292.880
4187 4186 4189 1 107.980 292.880
4188 4186 4189 1 108.297 276.144
4192 4193 4194 1 115.974 669.440
4193 4194 4195 1 122.748 418.400
4193 4194 4200 1 117.141 292.880
4194 4195 4196 1 112.203 669.440
4194 4195 4198 1 109.799 292.880
4194 4195 4199 1 110.394 292.880
4195 4194 4200 1 116.431 292.880
4195 4196 4197 1 107.831 460.240
4196 4195 4198 1 107.812 292.880
4196 4195 4199 1 108.141 292.880
4198 4195 4199 1 108.377 276.144
4202 4203 4204 1 116.182 669.440
4203 4204 4205 1 123.014 418.400
4203 4204 4209 1 117.665 292.880
4204 4205 4206 1 112.146 669.440
4204 4205 4207 1 110.304 292.880
4204 4205 4208 1 109.909 292.880
4205 4204 4209 1 116.950 292.880
4206 4205 4207 1 108.147 292.880
4206 4205 4208 1 107.761 292.880
4207 4205 4208 1 108.464 276.144
4211 4212 4213 1 118.794 669.440
4212 4213 4214 1 123.066 418.400
4212 4213 4218 1 117.297 292.880
4213 4214 4215 1 112.574 669.440
4213 4214 4216 1 109.745 292.880
4213 4214 4217 1 110.254 292.880
4214 4213 4218 1 116.799 292.880
4215 4214 4216 1 107.865 292.880
4215 4214 4217 1 107.980 292.880
4216 4214 4217 1 108.297 276.144
4220 4221 4222 1 115.974 669.440
4221 4222 4223 1 122.748 418.400
4221 4222 4228 1 117.141 292.880
4222 4223 4224 1 112.203 669.440
4222 4223 4226 1 109.799 292.880
4222 4223 4227 1 110.394 292.880
4223 4222 4228 1 116.431 292.880
4223 4224 4225 1 107.831 460.240
4224 4223 4226 1 107.812 292.880
4224 4223 4227 1 108.141 292.880
4226 4223 4227 1 108.377 276.144
4230 4231 4232 1 116.182 669.440
4231 4232 4233 1 123.014 418.400
4231 4232 4237 1 117.665 292.880
4232 4233 4234 1 112.146 669.440
4232 4233 4235 1 110.304 292.880
4232 4233 4236 1 109.909 292.880
4233 4232 4237 1 116.950 292.880
4234 4233 4235 1 108.147 292.880
4234 4233 4236 1 107.761 292.880
4235 4233 4236 1 108.464 276.144
4239 4240 4241 1 118.794 669.440
4240 4241 4242 1 123.066 418.400
4240 4241 4246 1 117.297 292.880
4241 4242 4243 1 112.574 669.440
4241 4242 4244 1 109.745 292.880
4241 4242 4245 1 110.254 292.880
4242 4241 4246 1 116.799 292.880
4243 4242 4244 1 107.865 292.880
4243 4242 4245 1 107.980 292.880
4244 4242 4245 1 108.297 276.144
4248 4249 4250 1 115.974 669.440
4249 4250 4251 1 122.748 418.400
4249 4250 4255 1 117.141 292.880
4250 4251 4252 1 112.203 669.440
4250 4251 4253 1 109.799 292.880
4250 4251 4254 1 110.394 292.880
4251 4250 4255 1 116.431 292.880
4252 4251 4253 1 107.812 292.880
4252 4251 4254 1 108.141 292.880
4253 4251 4254 1 108.377 276.144
4257 4258 4259 1 116.182 669.440
4258 4259 4260 1 123.014 418.400
4258 4259 4265 1 117.665 292.880
4259 4260 4261 1 112.146 669.440
4259 4260 4263 1 110.304 292.880
4259 4260 4264 1 109.909 292.880
4260 4259 4265 1 116.950 292.880
4260 4261 4262 1 107.577 460.240
4261 4260 4263 1 108.147 292.880
4261 4260 4264 1 107.761 292.880
4263 4260 4264 1 108.464 276.144
4267 4268 4269 1 118.794 669.440
4268 4269 4270 1 123.066 418.400
4268 4269 4274 1 117.297 292.880
4269 4270 4271 1 112.574 669.440
4269 4270 4272 1 109.745 292.880
4269 4270 4273 1 110.254 292.880
4270 4269 4274 1 116.799 292.880
4271 4270 4272 1 107.865 292.880
4271 4270 4273 1 107.980 292.880
4272 4270 4273 1 108.297 276.144
4276 4277 4278 1 115.974 669.440
4277 4278 4279 1 122.748 418.400
4277 4278 4282 1 117.141 292.880
4278 4279 4280 1 109.799 292.880
4278 4279 4281 1 110.394 292.880
4279 4278 4282 1 116.431 292.880
4280 4279 4281 1 108.377 276.144
4284 4285 4286 1 116.182 669.440
4285 4286 4287 1 123.014 418.400
4285 4286 4292 1 117.665 292.880
4286 4287 4288 1 112.146 669.440
4286 4287 4290 1 110.304 292.880
4286 4287 4291 1 109.909 292.880
4287 4286 4292 1 116.950 292.880
4287 4288 4289 1 107.577 460.240
4288 4287 4290 1 108.147 292.880
4288 4287 4291 1 107.761 292.880
4290 4287 4291 1 108.464 276.144
4294 4295 4296 1 118.794 669.440
4295 4296 4297 1 123.066 418.400
4295 4296 4301 1 117.297 292.880
4296 4297 4298 1 112.574 669.440
4296 4297 4299 1 109.745 292.880
4296 4297 4300 1 110.254 292.880
4297 4296 4301 1 116.799 292.880
4298 4297 4299 1 107.865 292.880
4298 4297 4300 1 107.980 292.880
4299 4297 4300 1 108.297 276.144
4303 4304 4305 1 115.974 669.440
4304 4305 4306 1 122.748 418.400
4304 4305 4310 1 117.141 292.880
4305 4306 4307 1 112.203 669.440
4305 4306 4308 1 109.799 292.880
4305 4306 4309 1 110.394 292.880
4306 4305 4310 1 116.431 292.880
4307 4306 4308 1 107.812 292.880
4307 4306 4309 1 108.141 292.880
4308 4306 4309 1 108.377 276.144
4312 4313 4314 1 116.182 669.440
4313 4314 4315 1 123.014 418.400
4313 4314 4318 1 117.665 292.880
4314 4315 4316 1 110.304 292.880
4314 4315 4317 1 109.909 292.880
4315 4314 4318 1 116.950 292.880
4316 4315 4317 1 108.464 276.144
4320 4321 4322 1 118.794 669.440
4321 4322 4323 1 123.066 418.400
4321 4322 4327 1 117.297 292.880
4322 4323 4324 1 112.574 669.440
4322 4323 4325 1 109.745 292.880
4322 4323 4326 1 110.254 292.880
4323 4322 4327 1 116.799 292.880
4324 4323 4325 1 107.865 292.880
4324 4323 4326 1 107.980 292.880
4325 4323 4326 1 108.297 276.144
4329 4330 4331 1 115.974 669.440
4330 4331 4332 1 122.748 418.400
4330 4331 4335 1 117.141 292.880
4331 4332 4333 1 109.799 292.880
4331 4332 4334 1 110.394 292.880
4332 4331 4335 1 116.431 292.880
4333 4332 4334 1 108.377 276.144
4337 4338 4339 1 116.182 669.440
4338 4339 4340 1 123.014 418.400
4338 4339 4344 1 117.665 292.880
4339 4340 4341 1 112.146 669.440
4339 4340 4342 1 110.304 292.880
4339 4340 4343 1 109.909 292.880
4340 4339 4344 1 116.950 292.880
4341 4340 4342 1 108.147 292.880
4341 4340 4343 1 107.761 292.880
4342 4340 4343 1 108.464 276.144
4346 4347 4348 1 118.794 669.440
4347 4348 4349 1 123.066 418.400
4347 4348 4353 1 117.297 292.880
4348 4349 4350 1 112.574 669.440
4348 4349 4351 1 109.745 292.880
4348 4349 4352 1 110.254 292.880
4349 4348 4353 1 116.799 292.880
4350 4349 4351 1 107.865 292.880
4350 4349 4352 1 107.980 292.880
4351 4349 4352 1 108.297 276.144
4355 4356 4357 1 115.974 669.440
4356 4357 4358 1 122.748 418.400
4356 4357 4361 1 117.141 292.880
4357 4358 4359 1 109.799 292.880
4357 4358 4360 1 110.394 292.880
4358 4357 4361 1 116.431 292.880
4359 4358 4360 1 108.377 276.144
4363 4364 4365 1 116.182 669.440
4364 4365 4366 1 123.014 418.400
4364 4365 4369 1 117.665 292.880
4365 4366 4367 1 110.304 292.880
4365 4366 4368 1 109.909 292.880
4366 4365 4369 1 116.950 292.880
4367 4366 4368 1 108.464 276.144
4371 4372 4373 1 118.794 669.440
4372 4373 4374 1 123.066 418.400
4372 4373 4377 1 117.297 292.880
4373 4374 4375 1 109.745 292.880
4373 4374 4376 1 110.254 292.880
4374 4373 4377 1 116.799 292.880
4375 4374 4376 1 108.297 276.144
4379 4380 4381 1 115.974 669.440
4380 4381 4382 1 122.748 418.400
4380 4381 4386 1 117.141 292.880
4381 4382 4383 1 112.203 669.440
4381 4382 4384 1 109.799 292.880
4381 4382 4385 1 110.394 292.880
4382 4381 4386 1 116.431 292.880
4383 4382 4384 1 107.812 292.880
4383 4382 4385 1 108.141 292.880
4384 4382 4385 1 108.377 276.144
4388 4389 4390 1 116.182 669.440
4389 4390 4391 1 123.014 418.400
4389 4390 4395 1 117.665 292.880
4390 4391 4392 1 112.146 669.440
4390 4391 4393 1 110.304 292.880
4390 4391 4394 1 109.909 292.880
4391 4390 4395 1 116.950 292.880
4392 4391 4393 1 108.147 292.880
4392 4391 4394 1 107.761 292.880
4393 4391 4394 1 108.464 276.144
4397 4398 4399 1 118.794 669.440
4398 4399 4400 1 123.066 418.400
4398 4399 4405 1 117.297 292.880
4399 4400 4401 1 112.574 669.440
4399 4400 4403 1 109.745 292.880
4399 4400 4404 1 110.254 292.880
4400 4399 4405 1 116.799 292.880
4400 4401 4402 1 108.806 460.240
4401 4400 4403 1 107.865 292.880
4401 4400 4404 1 107.980 292.880
4403 4400 4404 1 108.297 276.144
4407 4408 4409 1 115.974 669.440
4408 4409 4410 1 122.748 418.400
4408 4409 4414 1 117.141 292.880
4409 4410 4411 1 112.203 669.440
4409 4410 4412 1 109.799 292.880
4409 4410 4413 1 110.394 292.880
4410 4409 4414 1 116.431 292.880
4411 4410 4412 1 107.812 292.880
4411 4410 4413 1 108.141 292.880
4412 4410 4413 1 108.377 276.144
4416 4417 4418 1 116.182 669.440
4417 4418 4419 1 123.014 418.400
4417 4418 4423 1 117.665 292.880
4418 4419 4420 1 112.146 669.440
4418 4419 4421 1 110.304 292.880
4418 4419 4422 1 109.909 292.880
4419 4418 4423 1 116.950 292.880
4420 4419 4421 1 108.147 292.880
4420 4419 4422 1 107.761 292.880
4421 4419 4422 1 108.464 276.144
4425 4426 4427 1 118.794 669.440
4426 4427 4428 1 123.066 418.400
4426 4427 4432 1 117.297 292.880
4427 4428 4429 1 112.574 669.440
4427 4428 4430 1 109.745 292.880
4427 4428 4431 1 110.254 292.880
4428 4427 4432 1 116.799 292.880
4429 4428 4430 1 107.865 292.880
4429 4428 4431 1 107.980 292.880
4430 4428 4431 1 108.297 276.144
4434 4435 4436 1 115.974 669.440
4435 4436 4437 1 122.748 418.400
4435 4436 4441 1 117.141 292.880
4436 4437 4438 1 112.203 669.440
4436 4437 4439 1 109.799 292.880
4436 4437 4440 1 110.394 292.880
4437 4436 4441 1 116.431 292.880
4438 4437 4439 1 107.812 292.880
4438 4437 4440 1 108.141 292.880
4439 4437 4440 1 108.377 276.144
4443 4444 4445 1 116.182 669.440
4444 4445 4446 1 123.014 418.400
4444 4445 4450 1 117.665 292.880
4445 4446 4447 1 112.146 669.440
4445 4446 4448 1 110.304 292.880
4445 4446 4449 1 109.909 292.880
4446 4445 4450 1 116.950 292.880
4447 4446 4448 1 108.147 292.880
4447 4446 4449 1 107.761 292.880
4448 4446 4449 1 108.464 276.144
4452 4453 4454 1 118.794 669.440
4453 4454 4455 1 123.066 418.400
4453 4454 4459 1 117.297 292.880
4454 4455 4456 1 112.574 669.440
4454 4455 4457 1 109.745 292.880
4454 4455 4458 1 110.254 292.880
4455 4454 4459 1 116.799 292.880
4456 4455 4457 1 107.865 292.880
4456 4455 4458 1 107.980 292.880
4457 4455 4458 1 108.297 276.144
4461 4462 4463 1 115.974 669.440
4462 4463 4464 1 122.748 418.400
4462 4463 4468 1 117.141 292.880
4463 4464 4465 1 112.203 669.440
4463 4464 4466 1 109.799 292.880
4463 4464 4467 1 110.394 292.880
4464 4463 4468 1 116.431 292.880
4465 4464 4466 1 107.812 292.880
4465 4464 4467 1 108.141 292.880
4466 4464 4467 1 108.377 276.144
4470 4471 4472 1 116.182 669.440
4471 4472 4473 1 123.014 418.400
4471 4472 4477 1 117.665 292.880
4472 4473 4474 1 112.146 669.440
4472 4473 4475 1 110.304 292.880
4472 4473 4476 1 109.909 292.880
4473 4472 4477 1 116.950 292.880
4474 4473 4475 1 108.147 292.880
4474 4473 4476 1 107.761 292.880
4475 4473 4476 1 108.464 276.144
4479 4480 4481 1 118.794 669.440
4480 4481 4482 1 123.066 418.400
4480 4481 4486 1 117.297 292.880
4481 4482 4483 1 112.574 669.440
4481 4482 4484 1 109.745 292.880
4481 4482 4485 1 110.254 292.880
4482 4481 4486 1 116.799 292.880
4483 4482 4484 1 107.865 292.880
4483 4482 4485 1 107.980 292.880
4484 4482 4485 1 108.297 276.144
4488 4489 4490 1 115.974 669.440
4489 4490 4491 1 122.748 418.400
4489 4490 4494 1 117.141 292.880
4490 4491 4492 1 109.799 292.880
4490 4491 4493 1 110.394 292.880
4491 4490 4494 1 116.431 292.880
4492 4491 4493 1 108.377 276.144
4496 4497 4498 1 116.182 669.440
4497 4498 4499 1 123.014 418.400
4497 4498 4503 1 117.665 292.880
4498 4499 4500 1 112.146 669.440
4498 4499 4501 1 110.304 292.880
4498 4499 4502 1 109.909 292.880
4499 4498 4503 1 116.950 292.880
4500 4499 4501 1 108.147 292.880
4500 4499 4502 1 107.761 292.880
4501 4499 4502 1 108.464 276.144
4505 4506 4507 1 118.794 669.440
4506 4507 4508 1 123.066 418.400
4506 4507 4511 1 117.297 292.880
4507 4508 4509 1 109.745 292.880
4507 4508 4510 1 110.254 292.880
4508 4507 4511 1 116.799 292.880
4509 4508 4510 1 108.297 276.144
4513 4514 4515 1 115.974 669.440
4514 4515 4516 1 122.748 418.400
4514 4515 4520 1 117.141 292.880
4515 4516 4517 1 112.203 669.440
4515 4516 4518 1 109.799 292.880
4515 4516 4519 1 110.394 292.880
4516 4515 4520 1 116.431 292.880
4517 4516 4518 1 107.812 292.880
4517 4516 4519 1 108.141 292.880
4518 4516 4519 1 108.377 276.144
4522 4523 4524 1 116.182 669.440
4523 4524 4525 1 123.014 418.400
4523 4524 4528 1 117.665 292.880
4524 4525 4526 1 110.304 292.880
4524 4525 4527 1 109.909 292.880
4525 4524 4528 1 116.950 292.880
4526 4525 4527 1 108.464 276.144
4530 4531 4532 1 118.794 669.440
4531 4532 4533 1 123.066 418.400
4531 4532 4537 1 117.297 292.880
4532 4533 4534 1 112.574 669.440
4532 4533 4535 1 109.745 292.880
4532 4533 4536 1 110.254 292.880
4533 4532 4537 1 116.799 292.880
4534 4533 4535 1 107.865 292.880
4534 4533 4536 1 107.980 292.880
4535 4533 4536 1 108.297 276.144
4539 4540 4541 1 115.974 669.440
4540 4541 4542 1 122.748 418.400
4540 4541 4545 1 117.141 292.880
4541 4542 4543 1 109.799 292.880
4541 4542 4544 1 110.394 292.880
4542 4541 4545 1 116.431 292.880
4543 4542 4544 1 108.377 276.144
4547 4548 4549 1 116.182 669.440
4548 4549 4550 1 123.014 418.400
4548 4549 4553 1 117.665 292.880
4549 4550 4551 1 110.304 292.880
4549 4550 4552 1 109.909 292.880
4550 4549 4553 1 116.950 292.880
4551 4550 4552 1 108.464 276.144
4555 4556 4557 1 118.794 669.440
4556 4557 4558 1 123.066 418.400
4556 4557 4562 1 117.297 292.880
4557 4558 4559 1 112.574 669.440
4557 4558 4560 1 109.745 292.880
4557 4558 4561 1 110.254 292.880
4558 4557 4562 1 116.799 292.880
4559 4558 4560 1 107.865 292.880
4559 4558 4561 1 107.980 292.880
4560 4558 4561 1 108.297 276.144
4564 4565 4566 1 115.974 669.440
4565 4566 4567 1 122.748 418.400
4565 4566 4571 1 117.141 292.880
4566 4567 4568 1 112.203 669.440
4566 4567 4569 1 109.799 292.880
4566 4567 4570 1 110.394 292.880
4567 4566 4571 1 116.431 292.880
4568 4567 4569 1 107.812 292.880
4568 4567 4570 1 108.141 292.880
4569 4567 4570 1 108.377 276.144
4573 4574 4575 1 116.182 669.440
4574 4575 4576 1 123.014 418.400
4574 4575 4579 1 117.665 292.880
4575 4576 4577 1 110.304 292.880
4575 4576 4578 1 109.909 292.880
4576 4575 4579 1 116.950 292.880
4577 4576 4578 1 108.464 276.144
4581 4582 4583 1 118.794 669.440
4582 4583 4584 1 123.066 418.400
4582 4583 4588 1 117.297 292.880
4583 4584 4585 1 112.574 669.440
4583 4584 4586 1 109.745 292.880
4583 4584 4587 1 110.254 292.880
4584 4583 4588 1 116.799 292.880
4585 4584 4586 1 107.865 292.880
4585 4584 4587 1 107.980 292.880
4586 4584 4587 1 108.297 276.144
4590 4591 4592 1 115.974 669.440
4591 4592 4593 1 122.748 418.400
4591 4592 4597 1 117.141 292.880
4592 4593 4594 1 112.203 669.440
4592 4593 4595 1 109.799 292.880
4592 4593 4596 1 110.394 292.880
4593 4592 4597 1 116.431 292.880
4594 4593 4595 1 107.812 292.880
4594 4593 4596 1 108.141 292.880
4595 4593 4596 1 108.377 276.144
4599 4600 4601 1 116.182 669.440
4600 4601 4602 1 123.014 418.400
4600 4601 4606 1 117.665 292.880
4601 4602 4603 1 112.146 669.440
4601 4602 4604 1 110.304 292.880
4601 4602 4605 1 109.909 292.880
4602 4601 4606 1 116.950 292.880
4603 4602 4604 1 108.147 292.880
4603 4602 4605 1 107.761 292.880
4604 4602 4605 1 108.464 276.144
4608 4609 4610 1 118.794 669.440
4609 4610 4611 1 123.066 418.400
4609 4610 4614 1 117.297 292.880
4610 4611 4612 1 109.745 292.880
4610 4611 4613 1 110.254 292.880
4611 4610 4614 1 116.799 292.880
4612 4611 4613 1 108.297 276.144
4616 4617 4618 1 115.974 669.440
4617 4618 4619 1 122.748 418.400
4617 4618 4623 1 117.141 292.880
4618 4619 4620 1 112.203 669.440
4618 4619 4621 1 109.799 292.880
4618 4619 4622 1 110.394 292.880
4619 4618 4623 1 116.431 292.880
4620 4619 4621 1 107.812 292.880
4620 4619 4622 1 108.141 292.880
4621 4619 4622 1 108.377 276.144
4625 4626 4627 1 116.182 669.440
4626 4627 4628 1 123.014 418.400
4626 4627 4633 1 117.665 292.880
4627 4628 4629 1 112.146 669.440
4627 4628 4631 1 110.304 292.880
4627 4628 4632 1 109.909 292.880
4628 4627 4633 1 116.950 292.880
4628 4629 4630 1 107.577 460.240
4629 4628 4631 1 108.147 292.880
4629 4628 4632 1 107.761 292.880
4631 4628 4632 1 108.464 276.144
4635 4636 4637 1 118.794 669.440
4636 4637 4638 1 123.066 418.400
4636 4637 4642 1 117.297 292.880
4637 4638 4639 1 112.574 669.440
4637 4638 4640 1 109.745 292.880
4637 4638 4641 1 110.254 292.880
4638 4637 4642 1 116.799 292.880
4639 4638 4640 1 107.865 292.880
4639 4638 4641 1 107.980 292.880
4640 4638 4641 1 108.297 276.144
4644 4645 4646 1 115.974 669.440
4645 4646 4647 1 122.748 418.400
4645 4646 4651 1 117.141 292.880
4646 4647 4648 1 112.203 669.440
4646 4647 4649 1 109.799 292.880
4646 4647 4650 1 110.394 292.880
4647 4646 4651 1 116.431 292.880
4648 4647 4649 1 107.812 292.880
4648 4647 4650 1 108.141 292.880
4649 4647 4650 1 108.377 276.144
4653 4654 4655 1 116.182 669.440
4654 4655 4656 1 123.014 418.400
4654 4655 4660 1 117.665 292.880
4655 4656 4657 1 112.146 669.440
4655 4656 4658 1 110.304 292.880
4655 4656 4659 1 109.909 292.880
4656 4655 4660 1 116.950 292.880
4657 4656 4658 1 108.147 292.880
4657 4656 4659 1 107.761 292.880
4658 4656 4659 1 108.464 276.144
4662 4663 4664 1 118.794 669.440
4663 4664 4665 1 123.066 418.400
4663 4664 4669 1 117.297 292.880
4664 4665 4666 1 112.574 669.440
4664 4665 4667 1 109.745 292.880
4664 4665 4668 1 110.254 292.880
4665 4664 4669 1 116.799 292.880
4666 4665 4667 1 107.865 292.880
4666 4665 4668 1 107.980 292.880
4667 4665 4668 1 108.297 276.144
4671 4672 4673 1 115.974 669.440
4672 4673 4674 1 122.748 418.400
4672 4673 4678 1 117.141 292.880
4673 4674 4675 1 112.203 669.440
4673 4674 4676 1 109.799 292.880
4673 4674 4677 1 110.394 292.880
4674 4673 4678 1 116.431 292.880
4675 4674 4676 1 107.812 292.880
4675 4674 4677 1 108.141 292.880
4676 4674 4677 1 108.377 276.144
4680 4681 4682 1 116.182 669.440
4681 4682 4683 1 123.014 418.400
4681 4682 4687 1 117.665 292.880
4682 4683 4684 1 112.146 669.440
4682 4683 4685 1 110.304 292.880
4682 4683 4686 1 109.909 292.880
4683 4682 4687 1 116.950 292.880
4684 4683 4685 1 108.147 292.880
4684 4683 4686 1 107.761 292.880
4685 4683 4686 1 108.464 276.144
4689 4690 4691 1 118.794 669.440
4690 4691 4692 1 123.066 418.400
4690 4691 4695 1 117.297 292.880
4691 4692 4693 1 109.745 292.880
4691 4692 4694 1 110.254 292.880
4692 4691 4695 1 116.799 292.880
4693 4692 4694 1 108.297 276.144
4697 4698 4699 1 115.974 669.440
4698 4699 4700 1 122.748 418.400
4698 4699 4704 1 117.141 292.880
4699 4700 4701 1 112.203 669.440
4699 4700 4702 1 109.799 292.880
4699 4700 4703 1 110.394 292.880
4700 4699 4704 1 116.431 292.880
4701 4700 4702 1 107.812 292.880
4701 4700 4703 1 108.141 292.880
4702 4700 4703 1 108.377 276.144
4706 4707 4708 1 116.182 669.440
4707 4708 4709 1 123.014 418.400
4707 4708 4712 1 117.665 292.880
4708 4709 4710 1 110.304 292.880
4708 4709 4711 1 109.909 292.880
4709 4708 4712 1 116.950 292.880
4710 4709 4711 1 108.464 276.144
4714 4715 4716 1 118.794 669.440
4715 4716 4717 1 123.066 418.400
4715 4716 4721 1 117.297 292.880
4716 4717 4718 1 112.574 669.440
4716 4717 4719 1 109.745 292.880
4716 4717 4720 1 110.254 292.880
4717 4716 4721 1 116.799 292.880
4718 4717 4719 1 107.865 292.880
4718 4717 4720 1 107.980 292.880
4719 4717 4720 1 108.297 276.144
4723 4724 4725 1 115.974 669.440
4724 4725 4726 1 122.748 418.400
4724 4725 4730 1 117.141 292.880
4725 4726 4727 1 112.203 669.440
4725 4726 4728 1 109.799 292.880
4725 4726 4729 1 110.394 292.880
4726 4725 4730 1 116.431 292.880
4727 4726 4728 1 107.812 292.880
4727 4726 4729 1 108.141 292.880
4728 4726 4729 1 108.377 276.144
4732 4733 4734 1 116.182 669.440
4733 4734 4735 1 123.014 418.400
4733 4734 4739 1 117.665 292.880
4734 4735 4736 1 112.146 669.440
4734 4735 4737 1 110.304 292.880
4734 4735 4738 1 109.909 292.880
4735 4734 4739 1 116.950 292.880
4736 4735 4737 1 108.147 292.880
4736 4735 4738 1 107.761 292.880
4737 4735 4738 1 108.464 276.144
4741 4742 4743 1 118.794 669.440
4742 4743 4744 1 123.066 418.400
4742 4743 4749 1 117.297 292.880
4743 4744 4745 1 112.574 669.440
4743 4744 4747 1 109.745 292.880
4743 4744 4748 1 110.254 292.880
4744 4743 4749 1 116.799 292.880
4744 4745 4746 1 108.806 460.240
4745 4744 4747 1 107.865 292.880
4745 4744 4748 1 107.980 292.880
4747 4744 4748 1 108.297 276.144
4751 4752 4753 1 115.974 669.440
4752 4753 4754 1 122.748 418.400
4752 4753 4758 1 117.141 292.880
4753 4754 4755 1 112.203 669.440
4753 4754 4756 1 109.799 292.880
4753 4754 4757 1 110.394 292.880
4754 4753 4758 1 116.431 292.880
4755 4754 4756 1 107.812 292.880
4755 4754 4757 1 108.141 292.880
4756 4754 4757 1 108.377 276.144
4760 4761 4762 1 116.182 669.440
4761 4762 4763 1 123.014 418.400
4761 4762 4767 1 117.665 292.880
4762 4763 4764 1 112.146 669.440
4762 4763 4765 1 110.304 292.880
4762 4763 4766 1 109.909 292.880
4763 4762 4767 1 116.950 292.880
4764 4763 4765 1 108.147 292.880
4764 4763 4766 1 107.761 292.880
4765 4763 4766 1 108.464 276.144
4769 4770 4771 1 118.794 669.440
4770 4771 4772 1 123.066 418.400
4770 4771 4776 1 117.297 292.880
4771 4772 4773 1 112.574 669.440
4771 4772 4774 1 109.745 292.880
4771 4772 4775 1 110.254 292.880
4772 4771 4776 1 116.799 292.880
4773 4772 4774 1 107.865 292.880
4773 4772 4775 1 107.980 292.880
4774 4772 4775 1 108.297 276.144
4778 4779 4780 1 115.974 669.440
4779 4780 4781 1 122.748 418.400
4779 4780 4785 1 117.141 292.880
4780 4781 4782 1 112.203 669.440
4780 4781 4783 1 109.799 292.880
4780 4781 4784 1 110.394 292.880
4781 4780 4785 1 116.431 292.880
4782 4781 4783 1 107.812 292.880
4782 4781 4784 1 108.141 292.880
4783 4781 4784 1 108.377 276.144
4787 4788 4789 1 116.182 669.440
4788 4789 4790 1 123.014 418.400
4788 4789 4794 1 117.665 292.880
4789 4790 4791 1 112.146 669.440
4789 4790 4792 1 110.304 292.880
4789 4790 4793 1 109.909 292.880
4790 4789 4794 1 116.950 292.880
4791 4790 4792 1 108.147 292.880
4791 4790 4793 1 107.761 292.880
4792 4790 4793 1 108.464 276.144
4796 4797 4798 1 118.794 669.440
4797 4798 4799 1 123.066 418.400
4797 4798 4802 1 117.297 292.880
4798 4799 4800 1 109.745 292.880
4798 4799 4801 1 110.254 292.880
4799 4798 4802 1 116.799 292.880
4800 4799 4801 1 108.297 276.144
4804 4805 4806 1 115.974 669.440
4805 4806 4807 1 122.748 418.400
4805 4806 4811 1 117.141 292.880
4806 4807 4808 1 112.203 669.440
4806 4807 4809 1 109.799 292.880
4806 4807 4810 1 110.394 292.880
4807 4806 4811 1 116.431 292.880
4808 4807 4809 1 107.812 292.880
4808 4807 4810 1 108.141 292.880
4809 4807 4810 1 108.377 276.144
4813 4814 4815 1 116.182 669.440
4814 4815 4816 1 123.014 418.400
4814 4815 4820 1 117.665 292.880
4815 4816 4817 1 112.146 669.440
4815 4816 4818 1 110.304 292.880
4815 4816 4819 1 109.909 292.880
4816 4815 4820 1 116.950 292.880
4817 4816 4818 1 108.147 292.880
4817 4816 4819 1 107.761 292.880
4818 4816 4819 1 108.464 276.144
4822 4823 4824 1 118.794 669.440
4823 4824 4825 1 123.066 418.400
4823 4824 4829 1 117.297 292.880
4824 4825 4826 1 112.574 669.440
4824 4825 4827 1 109.745 292.880
4824 4825 4828 1 110.254 292.880
4825 4824 4829 1 116.799 292.880
4826 4825 4827 1 107.865 292.880
4826 4825 4828 1 107.980 292.880
4827 4825 4828 1 108.297 276.144
4831 4832 4833 1 115.974 669.440
4832 4833 4834 1 122.748 418.400
4832 4833 4837 1 117.141 292.880
4833 4834 4835 1 109.799 292.880
4833 4834 4836 1 110.394 292.880
4834 4833 4837 1 116.431 292.880
4835 4834 4836 1 108.377 276.144
4839 4840 4841 1 116.182 669.440
4840 4841 4842 1 123.014 418.400
4840 4841 4845 1 117.665 292.880
4841 4842 4843 1 110.304 292.880
4841 4842 4844 1 109.909 292.880
4842 4841 4845 1 116.950 292.880
4843 4842 4844 1 108.464 276.144
4847 4848 4849 1 118.794 669.440
4848 4849 4850 1 123.066 418.400
4848 4849 4854 1 117.297 292.880
4849 4850 4851 1 112.574 669.440
4849 4850 4852 1 109.745 292.880
4849 4850 4853 1 110.254 292.880
4850 4849 4854 1 116.799 292.880
4851 4850 4852 1 107.865 292.880
4851 4850 4853 1 107.980 292.880
4852 4850 4853 1 108.297 276.144
4856 4857 4858 1 115.974 669.440
4857 4858 4859 1 122.748 418.400
4857 4858 4863 1 117.141 292.880
4858 4859 4860 1 112.203 669.440
4858 4859 4861 1 109.799 292.880
4858 4859 4862 1 110.394 292.880
4859 4858 4863 1 116.431 292.880
4860 4859 4861 1 107.812 292.880
4860 4859 4862 1 108.141 292.880
4861 4859 4862 1 108.377 276.144
4865 4866 4867 1 116.182 669.440
4866 4867 4868 1 123.014 418.400
4866 4867 4871 1 117.665 292.880
4867 4868 4869 1 110.304 292.880
4867 4868 4870 1 109.909 292.880
4868 4867 4871 1 116.950 292.880
4869 4868 4870 1 108.464 276.144
4873 4874 4875 1 118.794 669.440
4874 4875 4876 1 123.066 418.400
4874 4875 4880 1 117.297 292.880
4875 4876 4877 1 112.574 669.440
4875 4876 4878 1 109.745 292.880
4875 4876 4879 1 110.254 292.880
4876 4875 4880 1 116.799 292.880
4877 4876 4878 1 107.865 292.880
4877 4876 4879 1 107.980 292.880
4878 4876 4879 1 108.297 276.144
4882 4883 4884 1 115.974 669.440
4883 4884 4885 1 122.748 418.400
4883 4884 4889 1 117.141 292.880
4884 4885 4886 1 112.203 669.440
4884 4885 4887 1 109.799 292.880
4884 4885 4888 1 110.394 292.880
4885 4884 4889 1 116.431 292.880
4886 4885 4887 1 107.812 292.880
4886 4885 4888 1 108.141 292.880
4887 4885 4888 1 108.377 276.144
4891 4892 4893 1 116.182 669.440
4892 4893 4894 1 123.014 418.400
4892 4893 4898 1 117.665 292.880
4893 4894 4895 1 112.146 669.440
4893 4894 4896 1 110.304 292.880
4893 4894 4897 1 109.909 292.880
4894 4893 4898 1 116.950 292.880
4895 4894 4896 1 108.147 292.880
4895 4894 4897 1 107.761 292.880
4896 4894 4897 1 108.464 276.144
4900 4901 4902 1 118.794 669.440
4901 4902 4903 1 123.066 418.400
4901 4902 4907 1 117.297 292.880
4902 4903 4904 1 112.574 669.440
4902 4903 4905 1 109.745 292.880
4902 4903 4906 1 110.254 292.880
4903 4902 4907 1 116.799 292.880
4904 4903 4905 1 107.865 292.880
4904 4903 4906 1 107.980 292.880
4905 4903 4906 1 108.297 276.144
4909 4910 4911 1 115.974 669.440
4910 4911 4912 1 122.748 418.400
4910 4911 4915 1 117.141 292.880
4911 4912 4913 1 109.799 292.880
4911 4912 4914 1 110.394 292.880
4912 4911 4915 1 116.431 292.880
4913 4912 4914 1 108.377 276.144
4917 4918 4919 1 116.182 669.440
4918 4919 4920 1 123.014 418.400
4918 4919 4923 1 117.665 292.880
4919 4920 4921 1 110.304 292.880
4919 4920 4922 1 109.909 292.880
4920 4919 4923 1 116.950 292.880
4921 4920 4922 1 108.464 276.144
4925 4926 4927 1 118.794 669.440
4926 4927 4928 1 123.066 418.400
4926 4927 4932 1 117.297 292.880
4927 4928 4929 1 112.574 669.440
4927 4928 4930 1 109.745 292.880
4927 4928 4931 1 110.254 292.880
4928 4927 4932 1 116.799 292.880
4929 4928 4930 1 107.865 292.880
4929 4928 4931 1 107.980 292.880
4930 4928 4931 1 108.297 276.144
4934 4935 4936 1 115.974 669.440
4935 4936 4937 1 122.748 418.400
4935 4936 4941 1 117.141 292.880
4936 4937 4938 1 112.203 669.440
4936 4937 4939 1 109.799 292.880
4936 4937 4940 1 110.394 292.880
4937 4936 4941 1 116.431 292.880
4938 4937 4939 1 107.812 292.880
4938 4937 4940 1 108.141 292.880
4939 4937 4940 1 108.377 276.144
4943 4944 4945 1 116.182 669.440
4944 4945 4946 1 123.014 418.400
4944 4945 4951 1 117.665 292.880
4945 4946 4947 1 112.146 669.440
4945 4946 4949 1 110.304 292.880
4945 4946 4950 1 109.909 292.880
4946 4945 4951 1 116.950 292.880
4946 4947 4948 1 107.577 460.240
4947 4946 4949 1 108.147 292.880
4947 4946 4950 1 107.761 292.880
4949 4946 4950 1 108.464 276.144
4953 4954 4955 1 118.794 669.440
4954 4955 4956 1 123.066 418.400
4954 4955 4959 1 117.297 292.880
4955 4956 4957 1 109.745 292.880
4955 4956 4958 1 110.254 292.880
4956 4955 4959 1 116.799 292.880
4957 4956 4958 1 108.297 276.144
4961 4962 4963 1 115.974 669.440
4962 4963 4964 1 122.748 418.400
4962 4963 4967 1 117.141 292.880
4963 4964 4965 1 109.799 292.880
4963 4964 4966 1 110.394 292.880
4964 4963 4967 1 116.431 292.880
4965 4964 4966 1 108.377 276.144
4969 4970 4971 1 116.182 669.440
4970 4971 4972 1 123.014 418.400
4970 4971 4975 1 117.665 292.880
4971 4972 4973 1 110.304 292.880
4971 4972 4974 1 109.909 292.880
4972 4971 4975 1 116.950 292.880
4973 4972 4974 1 108.464 276.144
4977 4978 4979 1 118.794 669.440
4978 4979 4980 1 123.066 418.400
4978 4979 4984 1 117.297 292.880
4979 4980 4981 1 112.574 669.440
4979 4980 4982 1 109.745 292.880
4979 4980 4983 1 110.254 292.880
4980 4979 4984 1 116.799 292.880
4981 4980 4982 1 107.865 292.880
4981 4980 4983 1 107.980 292.880
4982 4980 4983 1 108.297 276.144
4986 4987 4988 1 115.974 669.440
4987 4988 4989 1 122.748 418.400
4987 4988 4993 1 117.141 292.880
4988 4989 4990 1 112.203 669.440
4988 4989 4991 1 109.799 292.880
4988 4989 4992 1 110.394 292.880
4989 4988 4993 1 116.431 292.880
4990 4989 4991 1 107.812 292.880
4990 4989 4992 1 108.141 292.880
4991 4989 4992 1 108.377 276.144
4995 4996 4997 1 116.182 669.440
4996 4997 4998 1 123.014 418.400
4996 4997 5002 1 117.665 292.880
4997 4998 4999 1 112.146 669.440
4997 4998 5000 1 110.304 292.880
4997 4998 5001 1 109.909 292.880
4998 4997 5002 1 116.950 292.880
4999 4998 5000 1 108.147 292.880
4999 4998 5001 1 107.761 292.880
5000 4998 5001 1 108.464 276.144
5004 5005 5006 1 118.794 669.440
5005 5006 5007 1 123.066 418.400
5005 5006 5012 1 117.297 292.880
5006 5007 5008 1 112.574 669.440
5006 5007 5010 1 109.745 292.880
5006 5007 5011 1 110.254 292.880
5007 5006 5012 1 116.799 292.880
5007 5008 5009 1 108.806 460.240
5008 5007 5010 1 107.865 292.880
5008 5007 5011 1 107.980 292.880
5010 5007 5011 1 108.297 276.144
5014 5015 5016 1 115.974 669.440
5015 5016 5017 1 122.748 418.400
5015 5016 5021 1 117.141 292.880
5016 5017 5018 1 112.203 669.440
5016 5017 5019 1 109.799 292.880
5016 5017 5020 1 110.394 292.880
5017 5016 5021 1 116.431 292.880
5018 5017 5019 1 107.812 292.880
5018 5017 5020 1 108.141 292.880
5019 5017 5020 1 108.377 276.144
5023 5024 5025 1 116.182 669.440
5024 5025 5026 1 123.014 418.400
5024 5025 5029 1 117.665 292.880
5025 5026 5027 1 110.304 292.880
5025 5026 5028 1 109.909 292.880
5026 5025 5029 1 116.950 292.880
5027 5026 5028 1 108.464 276.144
5031 5032 5033 1 118.794 669.440
5032 5033 5034 1 123.066 418.400
5032 5033 5038 1 117.297 292.880
5033 5034 5035 1 112.574 669.440
5033 5034 5036 1 109.745 292.880
5033 5034 5037 1 110.254 292.880
5034 5033 5038 1 116.799 292.880
5035 5034 5036 1 107.865 292.880
5035 5034 5037 1 107.980 292.880
5036 5034 5037 1 108.297 276.144
5040 5041 5042 1 115.974 669.440
5041 5042 5043 1 122.748 418.400
5041 5042 5046 1 117.141 292.880
5042 5043 5044 1 109.799 292.880
5042 5043 5045 1 110.394 292.880
5043 5042 5046 1 116.431 292.880
5044 5043 5045 1 108.377 276.144
5048 5049 5050 1 116.182 669.440
5049 5050 5051 1 123.014 418.400
5049 5050 5056 1 117.665 292.880
5050 5051 5052 1 112.146 669.440
5050 5051 5054 1 110.304 292.880
5050 5051 5055 1 109.909 292.880
5051 5050 5056 1 116.950 292.880
5051 5052 5053 1 107.577 460.240
5052 5051 5054 1 108.147 292.880
5052 5051 5055 1 107.761 292.880
5054 5051 5055 1 108.464 276.144
5058 5059 5060 1 118.794 669.440
5059 5060 5061 1 123.066 418.400
5059 5060 5064 1 117.297 292.880
5060 5061 5062 1 109.745 292.880
5060 5061 5063 1 110.254 292.880
5061 5060 5064 1 116.799 292.880
5062 5061 5063 1 108.297 276.144
5066 5067 5068 1 115.974 669.440
5067 5068 5069 1 122.748 418.400
5067 5068 5073 1 117.141 292.880
5068 5069 5070 1 112.203 669.440
5068 5069 5071 1 109.799 292.880
5068 5069 5072 1 110.394 292.880
5069 5068 5073 1 116.431 292.880
5070 5069 5071 1 107.812 292.880
5070 5069 5072 1 108.141 292.880
5071 5069 5072 1 108.377 276.144
5075 5076 5077 1 116.182 669.440
5076 5077 5078 1 123.014 418.400
5076 5077 5082 1 117.665 292.880
5077 5078 5079 1 112.146 669.440
5077 5078 5080 1 110.304 292.880
5077 5078 5081 1 109.909 292.880
5078 5077 5082 1 116.950 292.880
5079 5078 5080 1 108.147 292.880
5079 5078 5081 1 107.761 292.880
5080 5078 5081 1 108.464 276.144
5084 5085 5086 1 118.794 669.440
5085 5086 5087 1 123.066 418.400
5085 5086 5091 1 117.297 292.880
5086 5087 5088 1 112.574 669.440
5086 5087 5089 1 109.745 292.880
5086 5087 5090 1 110.254 292.880
5087 5086 5091 1 116.799 292.880
5088 5087 5089 1 107.865 292.880
5088 5087 5090 1 107.980 292.880
5089 5087 5090 1 108.297 276.144
5093 5094 5095 1 115.974 669.440
5094 5095 5096 1 122.748 418.400
5094 5095 5101 1 117.141 292.880
5095 5096 5097 1 112.203 669.440
5095 5096 5099 1 109.799 292.880
5095 5096 5100 1 110.394 292.880
5096 5095 5101 1 116.431 292.880
5096 5097 5098 1 107.831 460.240
5097 5096 5099 1 107.812 292.880
5097 5096 5100 1 108.141 292.880
5099 5096 5100 1 108.377 276.144
5103 5104 5105 1 116.182 669.440
5104 5105 5106 1 123.014 418.400
5104 5105 5110 1 117.665 292.880
5105 5106 5107 1 112.146 669.440
5105 5106 5108 1 110.304 292.880
5105 5106 5109 1 109.909 292.880
5106 5105 5110 1 116.950 292.880
5107 5106 5108 1 108.147 292.880
5107 5106 5109 1 107.761 292.880
5108 5106 5109 1 108.464 276.144
5112 5113 5114 1 118.794 669.440
5113 5114 5115 1 123.066 418.400
5113 5114 5120 1 117.297 292.880
5114 5115 5116 1 112.574 669.440
5114 5115 5118 1 109.745 292.880
5114 5115 5119 1 110.254 292.880
5115 5114 5120 1 116.799 292.880
5115 5116 5117 1 108.806 460.240
5116 5115 5118 1 107.865 292.880
5116 5115 5119 1 107.980 292.880
5118 5115 5119 1 108.297 276.144
5122 5123 5124 1 115.974 669.440
5123 5124 5125 1 122.748 418.400
5123 5124 5130 1 117.141 292.880
5124 5125 5126 1 112.203 669.440
5124 5125 5128 1 109.799 292.880
5124 5125 5129 1 110.394 292.880
5125 5124 5130 1 116.431 292.880
5125 5126 5127 1 107.831 460.240
5126 5125 5128 1 107.812 292.880
5126 5125 5129 1 108.141 292.880
5128 5125 5129 1 108.377 276.144
5132 5133 5134 1 116.182 669.440
5133 5134 5135 1 123.014 418.400
5133 5134 5139 1 117.665 292.880
5134 5135 5136 1 112.146 669.440
5134 5135 5137 1 110.304 292.880
5134 5135 5138 1 109.909 292.880
5135 5134 5139 1 116.950 292.880
5136 5135 5137 1 108.147 292.880
5136 5135 5138 1 107.761 292.880
5137 5135 5138 1 108.464 276.144
5141 5142 5143 1 118.794 669.440
5142 5143 5144 1 123.066 418.400
5142 5143 5148 1 117.297 292.880
5143 5144 5145 1 112.574 669.440
5143 5144 5146 1 109.745 292.880
5143 5144 5147 1 110.254 292.880
5144 5143 5148 1 116.799 292.880
5145 5144 5146 1 107.865 292.880
5145 5144 5147 1 107.980 292.880
5146 5144 5147 1 108.297 276.144
5150 5151 5152 1 115.974 669.440
5151 5152 5153 1 122.748 418.400
5151 5152 5156 1 117.141 292.880
5152 5153 5154 1 109.799 292.880
5152 5153 5155 1 110.394 292.880
5153 5152 5156 1 116.431 292.880
5154 5153 5155 1 108.377 276.144
5158 5159 5160 1 116.182 669.440
5159 5160 5161 1 123.014 418.400
5159 5160 5165 1 117.665 292.880
5160 5161 5162 1 112.146 669.440
5160 5161 5163 1 110.304 292.880
5160 5161 5164 1 109.909 292.880
5161 5160 5165 1 116.950 292.880
5162 5161 5163 1 108.147 292.880
5162 5161 5164 1 107.761 292.880
5163 5161 5164 1 108.464 276.144
5167 5168 5169 1 118.794 669.440
5168 5169 5170 1 123.066 418.400
5168 5169 5174 1 117.297 292.880
5169 5170 5171 1 112.574 669.440
5169 5170 5172 1 109.745 292.880
5169 5170 5173 1 110.254 292.880
5170 5169 5174 1 116.799 292.880
5171 5170 5172 1 107.865 292.880
5171 5170 5173 1 107.980 292.880
5172 5170 5173 1 108.297 276.144
5176 5177 5178 1 115.974 669.440
5177 5178 5179 1 122.748 418.400
5177 5178 5182 1 117.141 292.880
5178 5179 5180 1 109.799 292.880
5178 5179 5181 1 110.394 292.880
5179 5178 5182 1 116.431 292.880
5180 5179 5181 1 108.377 276.144
5184 5185 5186 1 116.182 669.440
5185 5186 5187 1 123.014 418.400
5185 5186 5191 1 117.665 292.880
5186 5187 5188 1 112.146 669.440
5186 5187 5189 1 110.304 292.880
5186 5187 5190 1 109.909 292.880
5187 5186 5191 1 116.950 292.880
5188 5187 5189 1 108.147 292.880
5188 5187 5190 1 107.761 292.880
5189 5187 5190 1 108.464 276.144
5193 5194 5195 1 118.794 669.440
5194 5195 5196 1 123.066 418.400
5194 5195 5200 1 117.297 292.880
5195 5196 5197 1 112.574 669.440
5195 5196 5198 1 109.745 292.880
5195 5196 5199 1 110.254 292.880
5196 5195 5200 1 116.799 292.880
5197 5196 5198 1 107.865 292.880
5197 5196 5199 1 107.980 292.880
5198 5196 5199 1 108.297 276.144
5202 5203 5204 1 115.974 669.440
5203 5204 5205 1 122.748 418.400
5203 5204 5209 1 117.141 292.880
5204 5205 5206 1 112.203 669.440
5204 5205 5207 1 109.799 292.880
5204 5205 5208 1 110.394 292.880
5205 5204 5209 1 116.431 292.880
5206 5205 5207 1 107.812 292.880
5206 5205 5208 1 108.141 292.880
5207 5205 5208 1 108.377 276.144
5211 5212 5213 1 116.182 669.440
5212 5213 5214 1 123.014 418.400
5212 5213 5219 1 117.665 292.880
5213 5214 5215 1 112.146 669.440
5213 5214 5217 1 110.304 292.880
5213 5214 5218 1 109.909 292.880
5214 5213 5219 1 116.950 292.880
5214 5215 5216 1 107.577 460.240
5215 5214 5217 1 108.147 292.880
5215 5214 5218 1 107.761 292.880
5217 5214 5218 1 108.464 276.144
5221 5222 5223 1 118.794 669.440
5222 5223 5224 1 123.066 418.400
5222 5223 5228 1 117.297 292.880
5223 5224 5225 1 112.574 669.440
5223 5224 5226 1 109.745 292.880
5223 5224 5227 1 110.254 292.880
5224 5223 5228 1 116.799 292.880
5225 5224 5226 1 107.865 292.880
5225 5224 5227 1 107.980 292.880
5226 5224 5227 1 108.297 276.144
5230 5231 5232 1 115.974 669.440
5231 5232 5233 1 122.748 418.400
5231 5232 5236 1 117.141 292.880
5232 5233 5234 1 109.799 292.880
5232 5233 5235 1 110.394 292.880
5233 5232 5236 1 116.431 292.880
5234 5233 5235 1 108.377 276.144
5238 5239 5240 1 116.182 669.440
5239 5240 5241 1 123.014 418.400
5239 5240 5245 1 117.665 292.880
5240 5241 5242 1 112.146 669.440
5240 5241 5243 1 110.304 292.880
5240 5241 5244 1 109.909 292.880
5241 5240 5245 1 116.950 292.880
5242 5241 5243 1 108.147 292.880
5242 5241 5244 1 107.761 292.880
5243 5241 5244 1 108.464 276.144
5247 5248 5249 1 118.794 669.440
5248 5249 5250 1 123.066 418.400
5248 5249 5253 1 117.297 292.880
5249 5250 5251 1 109.745 292.880
5249 5250 5252 1 110.254 292.880
5250 5249 5253 1 116.799 292.880
5251 5250 5252 1 108.297 276.144
5255 5256 5257 1 115.974 669.440
5256 5257 5258 1 122.748 418.400
5256 5257 5263 1 117.141 292.880
5257 5258 5259 1 112.203 669.440
5257 5258 5261 1 109.799 292.880
5257 5258 5262 1 110.394 292.880
5258 5257 5263 1 116.431 292.880
5258 5259 5260 1 107.831 460.240
5259 5258 5261 1 107.812 292.880
5259 5258 5262 1 108.141 292.880
5261 5258 5262 1 108.377 276.144
5265 5266 5267 1 116.182 669.440
5266 5267 5268 1 123.014 418.400
5266 5267 5272 1 117.665 292.880
5267 5268 5269 1 112.146 669.440
5267 5268 5270 1 110.304 292.880
5267 5268 5271 1 109.909 292.880
5268 5267 5272 1 116.950 292.880
5269 5268 5270 1 108.147 292.880
5269 5268 5271 1 107.761 292.880
5270 5268 5271 1 108.464 276.144
5274 5275 5276 1 118.794 669.440
5275 5276 5277 1 123.066 418.400
5275 5276 5281 1 117.297 292.880
5276 5277 5278 1 112.574 669.440
5276 5277 5279 1 109.745 292.880
5276 5277 5280 1 110.254 292.880
5277 5276 5281 1 116.799 292.880
5278 5277 5279 1 107.865 292.880
5278 5277 5280 1 107.980 292.880
5279 5277 5280 1 108.297 276.144
5283 5284 5285 1 115.974 669.440
5284 5285 5286 1 122.748 418.400
5284 5285 5289 1 117.141 292.880
5285 5286 5287 1 109.799 292.880
5285 5286 5288 1 110.394 292.880
5286 5285 5289 1 116.431 292.880
5287 5286 5288 1 108.377 276.144
5291 5292 5293 1 116.182 669.440
5292 5293 5294 1 123.014 418.400
5292 5293 5298 1 117.665 292.880
5293 5294 5295 1 112.146 669.440
5293 5294 5296 1 110.304 292.880
5293 5294 5297 1 109.909 292.880
5294 5293 5298 1 116.950 292.880
5295 5294 5296 1 108.147 292.880
5295 5294 5297 1 107.761 292.880
5296 5294 5297 1 108.464 276.144
5300 5301 5302 1 118.794 669.440
5301 5302 5303 1 123.066 418.400
5301 5302 5306 1 117.297 292.880
5302 5303 5304 1 109.745 292.880
5302 5303 5305 1 110.254 292.880
5303 5302 5306 1 116.799 292.880
5304 5303 5305 1 108.297 276.144
5308 5309 5310 1 115.974 669.440
5309 5310 5311 1 122.748 418.400
5309 5310 5314 1 117.141 292.880
5310 5311 5312 1 109.799 292.880
5310 5311 5313 1 110.394 292.880
5311 5310 5314 1 116.431 292.880
5312 5311 5313 1 108.377 276.144
5316 5317 5318 1 116.182 669.440
5317 5318 5319 1 123.014 418.400
5317 5318 5323 1 117.665 292.880
5318 5319 5320 1 112.146 669.440
5318 5319 5321 1 110.304 292.880
5318 5319 5322 1 109.909 292.880
5319 5318 5323 1 116.950 292.880
5320 5319 5321 1 108.147 292.880
5320 5319 5322 1 107.761 292.880
5321 5319 5322 1 108.464 276.144
5325 5326 5327 1 118.794 669.440
5326 5327 5328 1 123.066 418.400
5326 5327 5333 1 117.297 292.880
5327 5328 5329 1 112.574 669.440
5327 5328 5331 1 109.745 292.880
5327 5328 5332 1 110.254 292.880
5328 5327 5333 1 116.799 292.880
5328 5329 5330 1 108.806 460.240
5329 5328 5331 1 107.865 292.880
5329 5328 5332 1 107.980 292.880
5331 5328 5332 1 108.297 276.144
5335 5336 5337 1 115.974 669.440
5336 5337 5338 1 122.748 418.400
5336 5337 5341 1 117.141 292.880
5337 5338 5339 1 109.799 292.880
5337 5338 5340 1 110.394 292.880
5338 5337 5341 1 116.431 292.880
5339 5338 5340 1 108.377 276.144
5343 5344 5345 1 116.182 669.440
5344 5345 5346 1 123.014 418.400
5344 5345 5349 1 117.665 292.880
5345 5346 5347 1 110.304 292.880
5345 5346 5348 1 109.909 292.880
5346 5345 5349 1 116.950 292.880
5347 5346 5348 1 108.464 276.144
5351 5352 5353 1 118.794 669.440
5352 5353 5354 1 123.066 418.400
5352 5353 5357 1 117.297 292.880
5353 5354 5355 1 109.745 292.880
5353 5354 5356 1 110.254 292.880
5354 5353 5357 1 116.799 292.880
5355 5354 5356 1 108.297 276.144
5359 5360 5361 1 115.974 669.440
5360 5361 5362 1 122.748 418.400
5360 5361 5366 1 117.141 292.880
5361 5362 5363 1 112.203 669.440
5361 5362 5364 1 109.799 292.880
5361 5362 5365 1 110.394 292.880
5362 5361 5366 1 116.431 292.880
5363 5362 5364 1 107.812 292.880
5363 5362 5365 1 108.141 292.880
5364 5362 5365 1 108.377 276.144
5368 5369 5370 1 116.182 669.440
5369 5370 5371 1 123.014 418.400
5369 5370 5374 1 117.665 292.880
5370 5371 5372 1 110.304 292.880
5370 5371 5373 1 109.909 292.880
5371 5370 5374 1 116.950 292.880
5372 5371 5373 1 108.464 276.144
5376 5377 5378 1 118.794 669.440
5377 5378 5379 1 123.066 418.400
5377 5378 5384 1 117.297 292.880
5378 5379 5380 1 112.574 669.440
5378 5379 5382 1 109.745 292.880
5378 5379 5383 1 110.254 292.880
5379 5378 5384 1 116.799 292.880
5379 5380 5381 1 108.806 460.240
5380 5379 5382 1 107.865 292.880
5380 5379 5383 1 107.980 292.880
5382 5379 5383 1 108.297 276.144
5386 5387 5388 1 115.974 669.440
5387 5388 5389 1 122.748 418.400
5387 5388 5394 1 117.141 292.880
5388 5389 5390 1 112.203 669.440
5388 5389 5392 1 109.799 292.880
5388 5389 5393 1 110.394 292.880
5389 5388 5394 1 116.431 292.880
5389 5390 5391 1 107.831 460.240
5390 5389 5392 1 107.812 292.880
5390 5389 5393 1 108.141 292.880
5392 5389 5393 1 108.377 276.144
5396 5397 5398 1 116.182 669.440
5397 5398 5399 1 123.014 418.400
5397 5398 5402 1 117.665 292.880
5398 5399 5400 1 110.304 292.880
5398 5399 5401 1 109.909 292.880
5399 5398 5402 1 116.950 292.880
5400 5399 5401 1 108.464 276.144
5404 5405 5406 1 118.794 669.440
5405 5406 5407 1 123.066 418.400
5405 5406 5410 1 117.297 292.880
5406 5407 5408 1 109.745 292.880
5406 5407 5409 1 110.254 292.880
5407 5406 5410 1 116.799 292.880
5408 5407 5409 1 108.297 276.144
5412 5413 5414 1 115.974 669.440
5413 5414 5415 1 122.748 418.400
5413 5414 5418 1 117.141 292.880
5414 5415 5416 1 109.799 292.880
5414 5415 5417 1 110.394 292.880
5415 5414 5418 1 116.431 292.880
5416 5415 5417 1 108.377 276.144
5420 5421 5422 1 116.182 669.440
5421 5422 5423 1 123.014 418.400
5421 5422 5426 1 117.665 292.880
5422 5423 5424 1 110.304 292.880
5422 5423 5425 1 109.909 292.880
5423 5422 5426 1 116.950 292.880
5424 5423 5425 1 108.464 276.144
5428 5429 5430 1 118.794 669.440
5429 5430 5431 1 123.066 418.400
5429 5430 5435 1 117.297 292.880
5430 5431 5432 1 112.574 669.440
5430 5431 5433 1 109.745 292.880
5430 5431 5434 1 110.254 292.880
5431 5430 5435 1 116.799 292.880
5432 5431 5433 1 107.865 292.880
5432 5431 5434 1 107.980 292.880
5433 5431 5434 1 108.297 276.144
5437 5438 5439 1 115.974 669.440
5438 5439 5440 1 122.748 418.400
5438 5439 5444 1 117.141 292.880
5439 5440 5441 1 112.203 669.440
5439 5440 5442 1 109.799 292.880
5439 5440 5443 1 110.394 292.880
5440 5439 5444 1 116.431 292.880
5441 5440 5442 1 107.812 292.880
5441 5440 5443 1 108.141 292.880
5442 5440 5443 1 108.377 276.144
5446 5447 5448 1 116.182 669.440
5447 5448 5449 1 123.014 418.400
5447 5448 5453 1 117.665 292.880
5448 5449 5450 1 112.146 669.440
5448 5449 5451 1 110.304 292.880
5448 5449 5452 1 109.909 292.880
5449 5448 5453 1 116.950 292.880
5450 5449 5451 1 108.147 292.880
5450 5449 5452 1 107.761 292.880
5451 5449 5452 1 108.464 276.144
5455 5456 5457 1 118.794 669.440
5456 5457 5458 1 123.066 418.400
5456 5457 5462 1 117.297 292.880
5457 5458 5459 1 112.574 669.440
5457 5458 5460 1 109.745 292.880
5457 5458 5461 1 110.254 292.880
5458 5457 5462 1 116.799 292.880
5459 5458 5460 1 107.865 292.880
5459 5458 5461 1 107.980 292.880
5460 5458 5461 1 108.297 276.144
5464 5465 5466 1 115.974 669.440
5465 5466 5467 1 122.748 418.400
5465 5466 5470 1 117.141 292.880
5466 5467 5468 1 109.799 292.880
5466 5467 5469 1 110.394 292.880
5467 5466 5470 1 116.431 292.880
5468 5467 5469 1 108.377 276.144
5472 5473 5474 1 116.182 669.440
5473 5474 5475 1 123.014 418.400
5473 5474 5479 1 117.665 292.880
5474 5475 5476 1 112.146 669.440
5474 5475 5477 1 110.304 292.880
5474 5475 5478 1 109.909 292.880
5475 5474 5479 1 116.950 292.880
5476 5475 5477 1 108.147 292.880
5476 5475 5478 1 107.761 292.880
5477 5475 5478 1 108.464 276.144
5481 5482 5483 1 118.794 669.440
5482 5483 5484 1 123.066 418.400
5482 5483 5488 1 117.297 292.880
5483 5484 5485 1 112.574 669.440
5483 5484 5486 1 109.745 292.880
5483 5484 5487 1 110.254 292.880
5484 5483 5488 1 116.799 292.880
5485 5484 5486 1 107.865 292.880
5485 5484 5487 1 107.980 292.880
5486 5484 5487 1 108.297 276.144
5490 5491 5492 1 115.974 669.440
5491 5492 5493 1 122.748 418.400
5491 5492 5496 1 117.141 292.880
5492 5493 5494 1 109.799 292.880
5492 5493 5495 1 110.394 292.880
5493 5492 5496 1 116.431 292.880
5494 5493 5495 1 108.377 276.144
5498 5499 5500 1 116.182 669.440
5499 5500 5501 1 123.014 418.400
5499 5500 5506 1 117.665 292.880
5500 5501 5502 1 112.146 669.440
5500 5501 5504 1 110.304 292.880
5500 5501 5505 1 109.909 292.880
5501 5500 5506 1 116.950 292.880
5501 5502 5503 1 107.577 460.240
5502 5501 5504 1 108.147 292.880
5502 5501 5505 1 107.761 292.880
5504 5501 5505 1 108.464 276.144
5508 5509 5510 1 118.794 669.440
5509 5510 5511 1 123.066 418.400
5509 5510 5514 1 117.297 292.880
5510 5511 5512 1 109.745 292.880
5510 5511 5513 1 110.254 292.880
5511 5510 5514 1 116.799 292.880
5512 5511 5513 1 108.297 276.144
5516 5517 5518 1 115.974 669.440
5517 5518 5519 1 122.748 418.400
5517 5518 5522 1 117.141 292.880
5518 5519 5520 1 109.799 292.880
5518 5519 5521 1 110.394 292.880
5519 5518 5522 1 116.431 292.880
5520 5519 5521 1 108.377 276.144
5524 5525 5526 1 116.182 669.440
5525 5526 5527 1 123.014 418.400
5525 5526 5531 1 117.665 292.880
5526 5527 5528 1 112.146 669.440
5526 5527 5529 1 110.304 292.880
5526 5527 5530 1 109.909 292.880
5527 5526 5531 1 116.950 292.880
5528 5527 5529 1 108.147 292.880
5528 5527 5530 1 107.761 292.880
5529 5527 5530 1 108.464 276.144
5533 5534 5535 1 118.794 669.440
5534 5535 5536 1 123.066 418.400
5534 5535 5540 1 117.297 292.880
5535 5536 5537 1 112.574 669.440
5535 5536 5538 1 109.745 292.880
5535 5536 5539 1 110.254 292.880
5536 5535 5540 1 116.799 292.880
5537 5536 5538 1 107.865 292.880
5537 5536 5539 1 107.980 292.880
5538 5536 5539 1 108.297 276.144
5542 5543 5544 1 115.974 669.440
5543 5544 5545 1 122.748 418.400
5543 5544 5548 1 117.141 292.880
5544 5545 5546 1 109.799 292.880
5544 5545 5547 1 110.394 292.880
5545 5544 5548 1 116.431 292.880
5546 5545 5547 1 108.377 276.144
5550 5551 5552 1 116.182 669.440
5551 5552 5553 1 123.014 418.400
5551 5552 5558 1 117.665 292.880
5552 5553 5554 1 112.146 669.440
5552 5553 5556 1 110.304 292.880
5552 5553 5557 1 109.909 292.880
5553 5552 5558 1 116.950 292.880
5553 5554 5555 1 107.577 460.240
5554 5553 5556 1 108.147 292.880
5554 5553 5557 1 107.761 292.880
5556 5553 5557 1 108.464 276.144
5560 5561 5562 1 118.794 669.440
5561 5562 5563 1 123.066 418.400
5561 5562 5567 1 117.297 292.880
5562 5563 5564 1 112.574 669.440
5562 5563 5565 1 109.745 292.880
5562 5563 5566 1 110.254 292.880
5563 5562 5567 1 116.799 292.880
5564 5563 5565 1 107.865 292.880
5564 5563 5566 1 107.980 292.880
5565 5563 5566 1 108.297 276.144
5569 5570 5571 1 115.974 669.440
5570 5571 5572 1 122.748 418.400
5570 5571 5576 1 117.141 292.880
5571 5572 5573 1 112.203 669.440
5571 5572 5574 1 109.799 292.880
5571 5572 5575 1 110.394 292.880
5572 5571 5576 1 116.431 292.880
5573 5572 5574 1 107.812 292.880
5573 5572 5575 1 108.141 292.880
5574 5572 5575 1 108.377 276.144
5578 5579 5580 1 116.182 669.440
5579 5580 5581 1 123.014 418.400
5579 5580 5584 1 117.665 292.880
5580 5581 5582 1 110.304 292.880
5580 5581 5583 1 109.909 292.880
5581 5580 5584 1 116.950 292.880
5582 5581 5583 1 108.464 276.144
5586 5587 5588 1 118.794 669.440
5587 5588 5589 1 123.066 418.400
5587 5588 5592 1 117.297 292.880
5588 5589 5590 1 109.745 292.880
5588 5589 5591 1 110.254 292.880
5589 5588 5592 1 116.799 292.880
5590 5589 5591 1 108.297 276.144
5594 5595 5596 1 115.974 669.440
5595 5596 5597 1 122.748 418.400
5595 5596 5600 1 117.141 292.880
5596 5597 5598 1 109.799 292.880
5596 5597 5599 1 110.394 292.880
5597 5596 5600 1 116.431 292.880
5598 5597 5599 1 108.377 276.144
5602 5603 5604 1 116.182 669.440
5603 5604 5605 1 123.014 418.400
5603 5604 5608 1 117.665 292.880
5604 5605 5606 1 110.304 292.880
5604 5605 5607 1 109.909 292.880
5605 5604 5608 1 116.950 292.880
5606 5605 5607 1 108.464 276.144
5610 5611 5612 1 118.794 669.440
5611 5612 5613 1 123.066 418.400
5611 5612 5616 1 117.297 292.880
5612 5613 5614 1 109.745 292.880
5612 5613 5615 1 110.254 292.880
5613 5612 5616 1 116.799 292.880
5614 5613 5615 1 108.297 276.144
5618 5619 5620 1 115.974 669.440
5619 5620 5621 1 122.748 418.400
5619 5620 5625 1 117.141 292.880
5620 5621 5622 1 112.203 669.440
5620 5621 5623 1 109.799 292.880
5620 5621 5624 1 110.394 292.880
5621 5620 5625 1 116.431 292.880
5622 5621 5623 1 107.812 292.880
5622 5621 5624 1 108.141 292.880
5623 5621 5624 1 108.377 276.144
5627 5628 5629 1 116.182 669.440
5628 5629 5630 1 123.014 418.400
5628 5629 5634 1 117.665 292.880
5629 5630 5631 1 112.146 669.440
5629 5630 5632 1 110.304 292.880
5629 5630 5633 1 109.909 292.880
5630 5629 5634 1 116.950 292.880
5631 5630 5632 1 108.147 292.880
5631 5630 5633 1 107.761 292.880
5632 5630 5633 1 108.464 276.144
5636 5637 5638 1 118.794 669.440
5637 5638 5639 1 123.066 418.400
5637 5638 5642 1 117.297 292.880
5638 5639 5640 1 109.745 292.880
5638 5639 5641 1 110.254 292.880
5639 5638 5642 1 116.799 292.880
5640 5639 5641 1 108.297 276.144
5644 5645 5646 1 115.974 669.440
5645 5646 5647 1 122.748 418.400
5645 5646 5651 1 117.141 292.880
5646 5647 5648 1 112.203 669.440
5646 5647 5649 1 109.799 292.880
5646 5647 5650 1 110.394 292.880
5647 5646 5651 1 116.431 292.880
5648 5647 5649 1 107.812 292.880
5648 5647 5650 1 108.141 292.880
5649 5647 5650 1 108.377 276.144
5653 5654 5655 1 116.182 669.440
5654 5655 5656 1 123.014 418.400
5654 5655 5661 1 117.665 292.880
5655 5656 5657 1 112.146 669.440
5655 5656 5659 1 110.304 292.880
5655 5656 5660 1 109.909 292.880
5656 5655 5661 1 116.950 292.880
5656 5657 5658 1 107.577 460.240
5657 5656 5659 1 108.147 292.880
5657 5656 5660 1 107.761 292.880
5659 5656 5660 1 108.464 276.144
5663 5664 5665 1 118.794 669.440
5664 5665 5666 1 123.066 418.400
5664 5665 5669 1 117.297 292.880
5665 5666 5667 1 109.745 292.880
5665 5666 5668 1 110.254 292.880
5666 5665 5669 1 116.799 292.880
5667 5666 5668 1 108.297 276.144
5671 5672 5673 1 115.974 669.440
5672 5673 5674 1 122.748 418.400
5672 5673 5678 1 117.141 292.880
5673 5674 5675 1 112.203 669.440
5673 5674 5676 1 109.799 292.880
5673 5674 5677 1 110.394 292.880
5674 5673 5678 1 116.431 292.880
5675 5674 5676 1 107.812 292.880
5675 5674 5677 1 108.141 292.880
5676 5674 5677 1 108.377 276.144
5680 5681 5682 1 116.182 669.440
5681 5682 5683 1 123.014 418.400
5681 5682 5687 1 117.665 292.880
5682 5683 5684 1 112.146 669.440
5682 5683 5685 1 110.304 292.880
5682 5683 5686 1 109.909 292.880
5683 5682 5687 1 116.950 292.880
5684 5683 5685 1 108.147 292.880
5684 5683 5686 1 107.761 292.880
5685 5683 5686 1 108.464 276.144
5689 5690 5691 1 118.794 669.440
5690 5691 5692 1 123.066 418.400
5690 5691 5696 1 117.297 292.880
5691 5692 5693 1 112.574 669.440
5691 5692 5694 1 109.745 292.880
5691 5692 5695 1 110.254 292.880
5692 5691 5696 1 116.799 292.880
5693 5692 5694 1 107.865 292.880
5693 5692 5695 1 107.980 292.880
5694 5692 5695 1 108.297 276.144
5698 5699 5700 1 115.974 669.440
5699 5700 5701 1 122.748 418.400
5699 5700 5705 1 117.141 292.880
5700 5701 5702 1 112.203 669.440
5700 5701 5703 1 109.799 292.880
5700 5701 5704 1 110.394 292.880
5701 5700 5705 1 116.431 292.880
5702 5701 5703 1 107.812 292.880
5702 5701 5704 1 108.141 292.880
5703 5701 5704 1 108.377 276.144
5707 5708 5709 1 116.182 669.440
5708 5709 5710 1 123.014 418.400
5708 5709 5713 1 117.665 292.880
5709 5710 5711 1 110.304 292.880
5709 5710 5712 1 109.909 292.880
5710 5709 5713 1 116.950 292.880
5711 5710 5712 1 108.464 276.144
5715 5716 5717 1 118.794 669.440
5716 5717 5718 1 123.066 418.400
5716 5717 5721 1 117.297 292.880
5717 5718 5719 1 109.745 292.880
5717 5718 5720 1 110.254 292.880
5718 5717 5721 1 116.799 292.880
5719 5718 5720 1 108.297 276.144
5723 5724 5725 1 115.974 669.440
5724 5725 5726 1 122.748 418.400
5724 5725 5731 1 117.141 292.880
5725 5726 5727 1 112.203 669.440
5725 5726 5729 1 109.799 292.880
5725 5726 5730 1 110.394 292.880
5726 5725 5731 1 116.431 292.880
5726 5727 5728 1 107.831 460.240
5727 5726 5729 1 107.812 292.880
5727 5726 5730 1 108.141 292.880
5729 5726 5730 1 108.377 276.144
5733 5734 5735 1 116.182 669.440
5734 5735 5736 1 123.014 418.400
5734 5735 5740 1 117.665 292.880
5735 5736 5737 1 112.146 669.440
5735 5736 5738 1 110.304 292.880
5735 5736 5739 1 109.909 292.880
5736 5735 5740 1 116.950 292.880
5737 5736 5738 1 108.147 292.880
5737 5736 5739 1 107.761 292.880
5738 5736 5739 1 108.464 276.144
5742 5743 5744 1 118.794 669.440
5743 5744 5745 1 123.066 418.400
5743 5744 5749 1 117.297 292.880
5744 5745 5746 1 112.574 669.440
5744 5745 5747 1 109.745 292.880
5744 5745 5748 1 110.254 292.880
5745 5744 5749 1 116.799 292.880
5746 5745 5747 1 107.865 292.880
5746 5745 5748 1 107.980 292.880
5747 5745 5748 1 108.297 276.144
5751 5752 5753 1 115.974 669.440
5752 5753 5754 1 122.748 418.400
5752 5753 5758 1 117.141 292.880
5753 5754 5755 1 112.203 669.440
5753 5754 5756 1 109.799 292.880
5753 5754 5757 1 110.394 292.880
5754 5753 5758 1 116.431 292.880
5755 5754 5756 1 107.812 292.880
5755 5754 5757 1 108.141 292.880
5756 5754 5757 1 108.377 276.144
5760 5761 5762 1 116.182 669.440
5761 5762 5763 1 123.014 418.400
5761 5762 5767 1 117.665 292.880
5762 5763 5764 1 112.146 669.440
5762 5763 5765 1 110.304 292.880
5762 5763 5766 1 109.909 292.880
5763 5762 5767 1 116.950 292.880
5764 5763 5765 1 108.147 292.880
5764 5763 5766 1 107.761 292.880
5765 5763 5766 1 108.464 276.144
5769 5770 5771 1 118.794 669.440
5770 5771 5772 1 123.066 418.400
5770 5771 5776 1 117.297 292.880
5771 5772 5773 1 112.574 669.440
5771 5772 5774 1 109.745 292.880
5771 5772 5775 1 110.254 292.880
5772 5771 5776 1 116.799 292.880
5773 5772 5774 1 107.865 292.880
5773 5772 5775 1 107.980 292.880
5774 5772 5775 1 108.297 276.144
5778 5779 5780 1 115.974 669.440
5779 5780 5781 1 122.748 418.400
5779 5780 5785 1 117.141 292.880
5780 5781 5782 1 112.203 669.440
5780 5781 5783 1 109.799 292.880
5780 5781 5784 1 110.394 292.880
5781 5780 5785 1 116.431 292.880
5782 5781 5783 1 107.812 292.880
5782 5781 5784 1 108.141 292.880
5783 5781 5784 1 108.377 276.144
5787 5788 5789 1 116.182 669.440
5788 5789 5790 1 123.014 418.400
5788 5789 5794 1 117.665 292.880
5789 5790 5791 1 112.146 669.440
5789 5790 5792 1 110.304 292.880
5789 5790 5793 1 109.909 292.880
5790 5789 5794 1 116.950 292.880
5791 5790 5792 1 108.147 292.880
5791 5790 5793 1 107.761 292.880
5792 5790 5793 1 108.464 276.144
5796 5797 5798 1 118.794 669.440
5797 5798 5799 1 123.066 418.400
5797 5798 5802 1 117.297 292.880
5798 5799 5800 1 109.745 292.880
5798 5799 5801 1 110.254 292.880
5799 5798 5802 1 116.799 292.880
5800 5799 5801 1 108.297 276.144
5804 5805 5806 1 115.974 669.440
5805 5806 5807 1 122.748 418.400
5805 5806 5811 1 117.141 292.880
5806 5807 5808 1 112.203 669.440
5806 5807 5809 1 109.799 292.880
5806 5807 5810 1 110.394 292.880
5807 5806 5811 1 116.431 292.880
5808 5807 5809 1 107.812 292.880
5808 5807 5810 1 108.141 292.880
5809 5807 5810 1 108.377 276.144
5813 5814 5815 1 116.182 669.440
5814 5815 5816 1 123.014 418.400
5814 5815 5820 1 117.665 292.880
5815 5816 5817 1 112.146 669.440
5815 5816 5818 1 110.304 292.880
5815 5816 5819 1 109.909 292.880
5816 5815 5820 1 116.950 292.880
5817 5816 5818 1 108.147 292.880
5817 5816 5819 1 107.761 292.880
5818 5816 5819 1 108.464 276.144
5822 5823 5824 1 118.794 669.440
5823 5824 5825 1 123.066 418.400
5823 5824 5828 1 117.297 292.880
5824 5825 5826 1 109.745 292.880
5824 5825 5827 1 110.254 292.880
5825 5824 5828 1 116.799 292.880
5826 5825 5827 1 108.297 276.144
5830 5831 5832 1 115.974 669.440
5831 5832 5833 1 122.748 418.400
5831 5832 5836 1 117.141 292.880
5832 5833 5834 1 109.799 292.880
5832 5833 5835 1 110.394 292.880
5833 5832 5836 1 116.431 292.880
5834 5833 5835 1 108.377 276.144
5838 5839 5840 1 116.182 669.440
5839 5840 5841 1 123.014 418.400
5839 5840 5844 1 117.665 292.880
5840 5841 5842 1 110.304 292.880
5840 5841 5843 1 109.909 292.880
5841 5840 5844 1 116.950 292.880
5842 5841 5843 1 108.464 276.144
5846 5847 5848 1 118.794 669.440
5847 5848 5849 1 123.066 418.400
5847 5848 5853 1 117.297 292.880
5848 5849 5850 1 112.574 669.440
5848 5849 5851 1 109.745 292.880
5848 5849 5852 1 110.254 292.880
5849 5848 5853 1 116.799 292.880
5850 5849 5851 1 107.865 292.880
5850 5849 5852 1 107.980 292.880
5851 5849 5852 1 108.297 276.144
5855 5856 5857 1 115.974 669.440
5856 5857 5858 1 122.748 418.400
5856 5857 5861 1 117.141 292.880
5857 5858 5859 1 109.799 292.880
5857 5858 5860 1 110.394 292.880
5858 5857 5861 1 116.431 292.880
5859 5858 5860 1 108.377 276.144
5863 5864 5865 1 116.182 669.440
5864 5865 5866 1 123.014 418.400
5864 5865 5870 1 117.665 292.880
5865 5866 5867 1 112.146 669.440
5865 5866 5868 1 110.304 292.880
5865 5866 5869 1 109.909 292.880
5866 5865 5870 1 116.950 292.880
5867 5866 5868 1 108.147 292.880
5867 5866 5869 1 107.761 292.880
5868 5866 5869 1 108.464 276.144
5872 5873 5874 1 118.794 669.440
5873 5874 5875 1 123.066 418.400
5873 5874 5878 1 117.297 292.880
5874 5875 5876 1 109.745 292.880
5874 5875 5877 1 110.254 292.880
5875 5874 5878 1 116.799 292.880
5876 5875 5877 1 108.297 276.144
5880 5881 5882 1 115.974 669.440
5881 5882 5883 1 122.748 418.400
5881 5882 5887 1 117.141 292.880
5882 5883 5884 1 112.203 669.440
5882 5883 5885 1 109.799 292.880
5882 5883 5886 1 110.394 292.880
5883 5882 5887 1 116.431 292.880
5884 5883 5885 1 107.812 292.880
5884 5883 5886 1 108.141 292.880
5885 5883 5886 1 108.377 276.144
5889 5890 5891 1 116.182 669.440
5890 5891 5892 1 123.014 418.400
5890 5891 5895 1 117.665 292.880
5891 5892 5893 1 110.304 292.880
5891 5892 5894 1 109.909 292.880
5892 5891 5895 1 116.950 292.880
5893 5892 5894 1 108.464 276.144
5897 5898 5899 1 118.794 669.440
5898 5899 5900 1 123.066 418.400
5898 5899 5903 1 117.297 292.880
5899 5900 5901 1 109.745 292.880
5899 5900 5902 1 110.254 292.880
5900 5899 5903 1 116.799 292.880
5901 5900 5902 1 108.297 276.144
5905 5906 5907 1 115.974 669.440
5906 5907 5908 1 122.748 418.400
5906 5907 5912 1 117.141 292.880
5907 5908 5909 1 112.203 669.440
5907 5908 5910 1 109.799 292.880
5907 5908 5911 1 110.394 292.880
5908 5907 5912 1 116.431 292.880
5909 5908 5910 1 107.812 292.880
5909 5908 5911 1 108.141 292.880
5910 5908 5911 1 108.377 276.144
5914 5915 5916 1 116.182 669.440
5915 5916 5917 1 123.014 418.400
5915 5916 5921 1 117.665 292.880
5916 5917 5918 1 112.146 669.440
5916 5917 5919 1 110.304 292.880
5916 5917 5920 1 109.909 292.880
5917 5916 5921 1 116.950 292.880
5918 5917 5919 1 108.147 292.880
5918 5917 5920 1 107.761 292.880
5919 5917 5920 1 108.464 276.144
5923 5924 5925 1 118.794 669.440
5924 5925 5926 1 123.066 418.400
5924 5925 5930 1 117.297 292.880
5925 5926 5927 1 112.574 669.440
5925 5926 5928 1 109.745 292.880
5925 5926 5929 1 110.254 292.880
5926 5925 5930 1 116.799 292.880
5927 5926 5928 1 107.865 292.880
5927 5926 5929 1 107.980 292.880
5928 5926 5929 1 108.297 276.144
5932 5933 5934 1 115.974 669.440
5933 5934 5935 1 122.748 418.400
5933 5934 5938 1 117.141 292.880
5934 5935 5936 1 109.799 292.880
5934 5935 5937 1 110.394 292.880
5935 5934 5938 1 116.431 292.880
5936 5935 5937 1 108.377 276.144
5940 5941 5942 1 116.182 669.440
5941 5942 5943 1 123.014 418.400
5941 5942 5947 1 117.665 292.880
5942 5943 5944 1 112.146 669.440
5942 5943 5945 1 110.304 292.880
5942 5943 5946 1 109.909 292.880
5943 5942 5947 1 116.950 292.880
5944 5943 5945 1 108.147 292.880
5944 5943 5946 1 107.761 292.880
5945 5943 5946 1 108.464 276.144
5949 5950 5951 1 118.794 669.440
5950 5951 5952 1 123.066 418.400
5950 5951 5955 1 117.297 292.880
5951 5952 5953 1 109.745 292.880
5951 5952 5954 1 110.254 292.880
5952 5951 5955 1 116.799 292.880
5953 5952 5954 1 108.297 276.144
5957 5958 5959 1 115.974 669.440
5958 5959 5960 1 122.748 418.400
5958 5959 5964 1 117.141 292.880
5959 5960 5961 1 112.203 669.440
5959 5960 5962 1 109.799 292.880
5959 5960 5963 1 110.394 292.880
5960 5959 5964 1 116.431 292.880
5961 5960 5962 1 107.812 292.880
5961 5960 5963 1 108.141 292.880
5962 5960 5963 1 108.377 276.144
5966 5967 5968 1 116.182 669.440
5967 5968 5969 1 123.014 418.400
5967 5968 5972 1 117.665 292.880
5968 5969 5970 1 110.304 292.880
5968 5969 5971 1 109.909 292.880
5969 5968 5972 1 116.950 292.880
5970 5969 5971 1 108.464 276.144
5974 5975 5976 1 118.794 669.440
5975 5976 5977 1 123.066 418.400
5975 5976 5981 1 117.297 292.880
5976 5977 5978 1 112.574 669.440
5976 5977 5979 1 109.745 292.880
5976 5977 5980 1 110.254 292.880
5977 5976 5981 1 116.799 292.880
5978 5977 5979 1 107.865 292.880
5978 5977 5980 1 107.980 292.880
5979 5977 5980 1 108.297 276.144
5983 5984 5985 1 115.974 669.440
5984 5985 5986 1 122.748 418.400
5984 5985 5990 1 117.141 292.880
5985 5986 5987 1 112.203 669.440
5985 5986 5988 1 109.799 292.880
5985 5986 5989 1 110.394 292.880
5986 5985 5990 1 116.431 292.880
5987 5986 5988 1 107.812 292.880
5987 5986 5989 1 108.141 292.880
5988 5986 5989 1 108.377 276.144
5992 5993 5994 1 116.182 669.440
5993 5994 5995 1 123.014 418.400
5993 5994 5999 1 117.665 292.880
5994 5995 5996 1 112.146 669.440
5994 5995 5997 1 110.304 292.880
5994 5995 5998 1 109.909 292.880
5995 5994 5999 1 116.950 292.880
5996 5995 5997 1 108.147 292.880
5996 5995 5998 1 107.761 292.880
5997 5995 5998 1 108.464 276.144
6001 6002 6003 1 118.794 669.440
6002 6003 6004 1 123.066 418.400
6002 6003 6007 1 117.297 292.880
6003 6004 6005 1 109.745 292.880
6003 6004 6006 1 110.254 292.880
6004 6003 6007 1 116.799 292.880
6005 6004 6006 1 108.297 276.144
6009 6010 6011 1 115.974 669.440
6010 6011 6012 1 122.748 418.400
6010 6011 6017 1 117.141 292.880
6011 6012 6013 1 112.203 669.440
6011 6012 6015 1 109.799 292.880
6011 6012 6016 1 110.394 292.880
6012 6011 6017 1 116.431 292.880
6012 6013 6014 1 107.831 460.240
6013 6012 6015 1 107.812 292.880
6013 6012 6016 1 108.141 292.880
6015 6012 6016 1 108.377 276.144
6019 6020 6021 1 116.182 669.440
6020 6021 6022 1 123.014 418.400
6020 6021 6025 1 117.665 292.880
6021 6022 6023 1 110.304 292.880
6021 6022 6024 1 109.909 292.880
6022 6021 6025 1 116.950 292.880
6023 6022 6024 1 108.464 276.144
6027 6028 6029 1 118.794 669.440
6028 6029 6030 1 123.066 418.400
6028 6029 6033 1 117.297 292.880
6029 6030 6031 1 109.745 292.880
6029 6030 6032 1 110.254 292.880
6030 6029 6033 1 116.799 292.880
6031 6030 6032 1 108.297 276.144
6035 6036 6037 1 115.974 669.440
6036 6037 6038 1 122.748 418.400
6036 6037 6041 1 117.141 292.880
6037 6038 6039 1 109.799 292.880
6037 6038 6040 1 110.394 292.880
6038 6037 6041 1 116.431 292.880
6039 6038 6040 1 108.377 276.144
6043 6044 6045 1 116.182 669.440
6044 6045 6046 1 123.014 418.400
6044 6045 6050 1 117.665 292.880
6045 6046 6047 1 112.146 669.440
6045 6046 6048 1 110.304 292.880
6045 6046 6049 1 109.909 292.880
6046 6045 6050 1 116.950 292.880
6047 6046 6048 1 108.147 292.880
6047 6046 6049 1 107.761 292.880
6048 6046 6049 1 108.464 276.144
6052 6053 6054 1 118.794 669.440
6053 6054 6055 1 123.066 418.400
6053 6054 6060 1 117.297 292.880
6054 6055 6056 1 112.574 669.440
6054 6055 6058 1 109.745 292.880
6054 6055 6059 1 110.254 292.880
6055 6054 6060 1 116.799 292.880
6055 6056 6057 1 108.806 460.240
6056 6055 6058 1 107.865 292.880
6056 6055 6059 1 107.980 292.880
6058 6055 6059 1 108.297 276.144
6062 6063 6064 1 115.974 669.440
6063 6064 6065 1 122.748 418.400
6063 6064 6068 1 117.141 292.880
6064 6065 6066 1 109.799 292.880
6064 6065 6067 1 110.394 292.880
6065 6064 6068 1 116.431 292.880
6066 6065 6067 1 108.377 276.144
6070 6071 6072 1 116.182 669.440
6071 6072 6073 1 123.014 418.400
6071 6072 6077 1 117.665 292.880
6072 6073 6074 1 112.146 669.440
6072 6073 6075 1 110.304 292.880
6072 6073 6076 1 109.909 292.880
6073 6072 6077 1 116.950 292.880
6074 6073 6075 1 108.147 292.880
6074 6073 6076 1 107.761 292.880
6075 6073 6076 1 108.464 276.144
6079 6080 6081 1 118.794 669.440
6080 6081 6082 1 123.066 418.400
6080 6081 6086 1 117.297 292.880
6081 6082 6083 1 112.574 669.440
6081 6082 6084 1 109.745 292.880
6081 6082 6085 1 110.254 292.880
6082 6081 6086 1 116.799 292.880
6083 6082 6084 1 107.865 292.880
6083 6082 6085 1 107.980 292.880
6084 6082 6085 1 108.297 276.144
6088 6089 6090 1 115.974 669.440
6089 6090 6091 1 122.748 418.400
6089 6090 6095 1 117.141 292.880
6090 6091 6092 1 112.203 669.440
6090 6091 6093 1 109.799 292.880
6090 6091 6094 1 110.394 292.880
6091 6090 6095 1 116.431 292.880
6092 6091 6093 1 107.812 292.880
6092 6091 6094 1 108.141 292.880
6093 6091 6094 1 108.377 276.144
6097 6098 6099 1 116.182 669.440
6098 6099 6100 1 123.014 418.400
6098 6099 6104 1 117.665 292.880
6099 6100 6101 1 112.146 669.440
6099 6100 6102 1 110.304 292.880
6099 6100 6103 1 109.909 292.880
6100 6099 6104 1 116.950 292.880
6101 6100 6102 1 108.147 292.880
6101 6100 6103 1 107.761 292.880
6102 6100 6103 1 108.464 276.144
6106 6107 6108 1 118.794 669.440
6107 6108 6109 1 123.066 418.400
6107 6108 6112 1 117.297 292.880
6108 6109 6110 1 109.745 292.880
6108 6109 6111 1 110.254 292.880
6109 6108 6112 1 116.799 292.880
6110 6109 6111 1 108.297 276.144
6114 6115 6116 1 115.974 669.440
6115 6116 6117 1 122.748 418.400
6115 6116 6121 1 117.141 292.880
6116 6117 6118 1 112.203 669.440
6116 6117 6119 1 109.799 292.880
6116 6117 6120 1 110.394 292.880
6117 6116 6121 1 116.431 292.880
6118 6117 6119 1 107.812 292.880
6118 6117 6120 1 108.141 292.880
6119 6117 6120 1 108.377 276.144
6123 6124 6125 1 116.182 669.440
6124 6125 6126 1 123.014 418.400
6124 6125 6130 1 117.665 292.880
6125 6126 6127 1 112.146 669.440
6125 6126 6128 1 110.304 292.880
6125 6126 6129 1 109.909 292.880
6126 6125 6130 1 116.950 292.880
6127 6126 6128 1 108.147 292.880
6127 6126 6129 1 107.761 292.880
6128 6126 6129 1 108.464 276.144
6132 6133 6134 1 118.794 669.440
6133 6134 6135 1 123.066 418.400
6133 6134 6138 1 117.297 292.880
6134 6135 6136 1 109.745 292.880
6134 6135 6137 1 110.254 292.880
6135 6134 6138 1 116.799 292.880
6136 6135 6137 1 108.297 276.144
6140 6141 6142 1 115.974 669.440
6141 6142 6143 1 122.748 418.400
6141 6142 6147 1 117.141 292.880
6142 6143 6144 1 112.203 669.440
6142 6143 6145 1 109.799 292.880
6142 6143 6146 1 110.394 292.880
6143 6142 6147 1 116.431 292.880
6144 6143 6145 1 107.812 292.880
6144 6143 6146 1 108.141 292.880
6145 6143 6146 1 108.377 276.144
6149 6150 6151 1 116.182 669.440
6150 6151 6152 1 123.014 418.400
6150 6151 6156 1 117.665 292.880
6151 6152 6153 1 112.146 669.440
6151 6152 6154 1 110.304 292.880
6151 6152 6155 1 109.909 292.880
6152 6151 6156 1 116.950 292.880
6153 6152 6154 1 108.147 292.880
6153 6152 6155 1 107.761 292.880
6154 6152 6155 1 108.464 276.144
6158 6159 6160 1 118.794 669.440
6159 6160 6161 1 123.066 418.400
6159 6160 6165 1 117.297 292.880
6160 6161 6162 1 112.574 669.440
6160 6161 6163 1 109.745 292.880
6160 6161 6164 1 110.254 292.880
6161 6160 6165 1 116.799 292.880
6162 6161 6163 1 107.865 292.880
6162 6161 6164 1 107.980 292.880
6163 6161 6164 1 108.297 276.144
6167 6168 6169 1 115.974 669.440
6168 6169 6170 1 122.748 418.400
6168 6169 6175 1 117.141 292.880
6169 6170 6171 1 112.203 669.440
6169 6170 6173 1 109.799 292.880
6169 6170 6174 1 110.394 292.880
6170 6169 6175 1 116.431 292.880
6170 6171 6172 1 107.831 460.240
6171 6170 6173 1 107.812 292.880
6171 6170 6174 1 108.141 292.880
6173 6170 6174 1 108.377 276.144
6177 6178 6179 1 116.182 669.440
6178 6179 6180 1 123.014 418.400
6178 6179 6184 1 117.665 292.880
6179 6180 6181 1 112.146 669.440
6179 6180 6182 1 110.304 292.880
6179 6180 6183 1 109.909 292.880
6180 6179 6184 1 116.950 292.880
6181 6180 6182 1 108.147 292.880
6181 6180 6183 1 107.761 292.880
6182 6180 6183 1 108.464 276.144
6186 6187 6188 1 118.794 669.440
6187 6188 6189 1 123.066 418.400
6187 6188 6193 1 117.297 292.880
6188 6189 6190 1 112.574 669.440
6188 6189 6191 1 109.745 292.880
6188 6189 6192 1 110.254 292.880
6189 6188 6193 1 116.799 292.880
6190 6189 6191 1 107.865 292.880
6190 6189 6192 1 107.980 292.880
6191 6189 6192 1 108.297 276.144
6195 6196 6197 1 115.974 669.440
6196 6197 6198 1 122.748 418.400
6196 6197 6201 1 117.141 292.880
6197 6198 6199 1 109.799 292.880
6197 6198 6200 1 110.394 292.880
6198 6197 6201 1 116.431 292.880
6199 6198 6200 1 108.377 276.144
6203 6204 6205 1 116.182 669.440
6204 6205 6206 1 123.014 418.400
6204 6205 6210 1 117.665 292.880
6205 6206 6207 1 112.146 669.440
6205 6206 6208 1 110.304 292.880
6205 6206 6209 1 109.909 292.880
6206 6205 6210 1 116.950 292.880
6207 6206 6208 1 108.147 292.880
6207 6206 6209 1 107.761 292.880
6208 6206 6209 1 108.464 276.144
6212 6213 6214 1 118.794 669.440
6213 6214 6215 1 123.066 418.400
6213 6214 6219 1 117.297 292.880
6214 6215 6216 1 112.574 669.440
6214 6215 6217 1 109.745 292.880
6214 6215 6218 1 110.254 292.880
6215 6214 6219 1 116.799 292.880
6216 6215 6217 1 107.865 292.880
6216 6215 6218 1 107.980 292.880
6217 6215 6218 1 108.297 276.144
6221 6222 6223 1 115.974 669.440
6222 6223 6224 1 122.748 418.400
6222 6223 6229 1 117.141 292.880
6223 6224 6225 1 112.203 669.440
6223 6224 6227 1 109.799 292.880
6223 6224 6228 1 110.394 292.880
6224 6223 6229 1 116.431 292.880
6224 6225 6226 1 107.831 460.240
6225 6224 6227 1 107.812 292.880
6225 6224 6228 1 108.141 292.880
6227 6224 6228 1 108.377 276.144
6231 6232 6233 1 116.182 669.440
6232 6233 6234 1 123.014 418.400
6232 6233 6238 1 117.665 292.880
6233 6234 6235 1 112.146 669.440
6233 6234 6236 1 110.304 292.880
6233 6234 6237 1 109.909 292.880
6234 6233 6238 1 116.950 292.880
6235 6234 6236 1 108.147 292.880
6235 6234 6237 1 107.761 292.880
6236 6234 6237 1 108.464 276.144
6240 6241 6242 1 118.794 669.440
6241 6242 6243 1 123.066 418.400
6241 6242 6248 1 117.297 292.880
6242 6243 6244 1 112.574 669.440
6242 6243 6246 1 109.745 292.880
6242 6243 6247 1 110.254 292.880
6243 6242 6248 1 116.799 292.880
6243 6244 6245 1 108.806 460.240
6244 6243 6246 1 107.865 292.880
6244 6243 6247 1 107.980 292.880
6246 6243 6247 1 108.297 276.144
6250 6251 6252 1 115.974 669.440
6251 6252 6253 1 122.748 418.400
6251 6252 6256 1 117.141 292.880
6252 6253 6254 1 109.799 292.880
6252 6253 6255 1 110.394 292.880
6253 6252 6256 1 116.431 292.880
6254 6253 6255 1 108.377 276.144
6258 6259 6260 1 116.182 669.440
6259 6260 6261 1 123.014 418.400
6259 6260 6266 1 117.665 292.880
6260 6261 6262 1 112.146 669.440
6260 6261 6264 1 110.304 292.880
6260 6261 6265 1 109.909 292.880
6261 6260 6266 1 116.950 292.880
6261 6262 6263 1 107.577 460.240
6262 6261 6264 1 108.147 292.880
6262 6261 6265 1 107.761 292.880
6264 6261 6265 1 108.464 276.144
6268 6269 6270 1 118.794 669.440
6269 6270 6271 1 123.066 418.400
6269 6270 6275 1 117.297 292.880
6270 6271 6272 1 112.574 669.440
6270 6271 6273 1 109.745 292.880
6270 6271 6274 1 110.254 292.880
6271 6270 6275 1 116.799 292.880
6272 6271 6273 1 107.865 292.880
6272 6271 6274 1 107.980 292.880
6273 6271 6274 1 108.297 276.144
6277 6278 6279 1 115.974 669.440
6278 6279 6280 1 122.748 418.400
6278 6279 6283 1 117.141 292.880
6279 6280 6281 1 109.799 292.880
6279 6280 6282 1 110.394 292.880
6280 6279 6283 1 116.431 292.880
6281 6280 6282 1 108.377 276.144
6285 6286 6287 1 116.182 669.440
6286 6287 6288 1 123.014 418.400
6286 6287 6292 1 117.665 292.880
6287 6288 6289 1 112.146 669.440
6287 6288 6290 1 110.304 292.880
6287 6288 6291 1 109.909 292.880
6288 6287 6292 1 116.950 292.880
6289 6288 6290 1 108.147 292.880
6289 6288 6291 1 107.761 292.880
6290 6288 6291 1 108.464 276.144
6294 6295 6296 1 118.794 669.440
6295 6296 6297 1 123.066 418.400
6295 6296 6300 1 117.297 292.880
6296 6297 6298 1 109.745 292.880
6296 6297 6299 1 110.254 292.880
6297 6296 6300 1 116.799 292.880
6298 6297 6299 1 108.297 276.144
6302 6303 6304 1 115.974 669.440
6303 6304 6305 1 122.748 418.400
6303 6304 6310 1 117.141 292.880
6304 6305 6306 1 112.203 669.440
6304 6305 6308 1 109.799 292.880
6304 6305 6309 1 110.394 292.880
6305 6304 6310 1 116.431 292.880
6305 6306 6307 1 107.831 460.240
6306 6305 6308 1 107.812 292.880
6306 6305 6309 1 108.141 292.880
6308 6305 6309 1 108.377 276.144
6312 6313 6314 1 116.182 669.440
6313 6314 6315 1 123.014 418.400
6313 6314 6319 1 117.665 292.880
6314 6315 6316 1 112.146 669.440
6314 6315 6317 1 110.304 292.880
6314 6315 6318 1 109.909 292.880
6315 6314 6319 1 116.950 292.880
6316 6315 6317 1 108.147 292.880
6316 6315 6318 1 107.761 292.880
6317 6315 6318 1 108.464 276.144
6321 6322 6323 1 118.794 669.440
6322 6323 6324 1 123.066 418.400
6322 6323 6329 1 117.297 292.880
6323 6324 6325 1 112.574 669.440
6323 6324 6327 1 109.745 292.880
6323 6324 6328 1 110.254 292.880
6324 6323 6329 1 116.799 292.880
6324 6325 6326 1 108.806 460.240
6325 6324 6327 1 107.865 292.880
6325 6324 6328 1 107.980 292.880
6327 6324 6328 1 108.297 276.144
6331 6332 6333 1 115.974 669.440
6332 6333 6334 1 122.748 418.400
6332 6333 6339 1 117.141 292.880
6333 6334 6335 1 112.203 669.440
6333 6334 6337 1 109.799 292.880
6333 6334 6338 1 110.394 292.880
6334 6333 6339 1 116.431 292.880
6334 6335 6336 1 107.831 460.240
6335 6334 6337 1 107.812 292.880
6335 6334 6338 1 108.141 292.880
6337 6334 6338 1 108.377 276.144
6341 6342 6343 1 116.182 669.440
6342 6343 6344 1 123.014 418.400
6342 6343 6348 1 117.665 292.880
6343 6344 6345 1 112.146 669.440
6343 6344 6346 1 110.304 292.880
6343 6344 6347 1 109.909 292.880
6344 6343 6348 1 116.950 292.880
6345 6344 6346 1 108.147 292.880
6345 6344 6347 1 107.761 292.880
6346 6344 6347 1 108.464 276.144
6350 6351 6352 1 118.794 669.440
6351 6352 6353 1 123.066 418.400
6351 6352 6357 1 117.297 292.880
6352 6353 6354 1 112.574 669.440
6352 6353 6355 1 109.745 292.880
6352 6353 6356 1 110.254 292.880
6353 6352 6357 1 116.799 292.880
6354 6353 6355 1 107.865 292.880
6354 6353 6356 1 107.980 292.880
6355 6353 6356 1 108.297 276.144
6359 6360 6361 1 115.974 669.440
6360 6361 6362 1 122.748 418.400
6360 6361 6365 1 117.141 292.880
6361 6362 6363 1 109.799 292.880
6361 6362 6364 1 110.394 292.880
6362 6361 6365 1 116.431 292.880
6363 6362 6364 1 108.377 276.144
6367 6368 6369 1 116.182 669.440
6368 6369 6370 1 123.014 418.400
6368 6369 6373 1 117.665 292.880
6369 6370 6371 1 110.304 292.880
6369 6370 6372 1 109.909 292.880
6370 6369 6373 1 116.950 292.880
6371 6370 6372 1 108.464 276.144
6375 6376 6377 1 118.794 669.440
6376 6377 6378 1 123.066 418.400
6376 6377 6382 1 117.297 292.880
6377 6378 6379 1 112.574 669.440
6377 6378 6380 1 109.745 292.880
6377 6378 6381 1 110.254 292.880
6378 6377 6382 1 116.799 292.880
6379 6378 6380 1 107.865 292.880
6379 6378 6381 1 107.980 292.880
6380 6378 6381 1 108.297 276.144
6384 6385 6386 1 115.974 669.440
6385 6386 6387 1 122.748 418.400
6385 6386 6392 1 117.141 292.880
6386 6387 6388 1 112.203 669.440
6386 6387 6390 1 109.799 292.880
6386 6387 6391 1 110.394 292.880
6387 6386 6392 1 116.431 292.880
6387 6388 6389 1 107.831 460.240
6388 6387 6390 1 107.812 292.880
6388 6387 6391 1 108.141 292.880
6390 6387 6391 1 108.377 276.144
6394 6395 6396 1 116.182 669.440
6395 6396 6397 1 123.014 418.400
6395 6396 6401 1 117.665 292.880
6396 6397 6398 1 112.146 669.440
6396 6397 6399 1 110.304 292.880
6396 6397 6400 1 109.909 292.880
6397 6396 6401 1 116.950 292.880
6398 6397 6399 1 108.147 292.880
6398 6397 6400 1 107.761 292.880
6399 6397 6400 1 108.464 276.144
6403 6404 6405 1 118.794 669.440
6404 6405 6406 1 123.066 418.400
6404 6405 6409 1 117.297 292.880
6405 6406 6407 1 109.745 292.880
6405 6406 6408 1 110.254 292.880
6406 6405 6409 1 116.799 292.880
6407 6406 6408 1 108.297 276.144
6411 6412 6413 1 115.974 669.440
6412 6413 6414 1 122.748 418.400
6412 6413 6417 1 117.141 292.880
6413 6414 6415 1 109.799 292.880
6413 6414 6416 1 110.394 292.880
6414 6413 6417 1 116.431 292.880
6415 6414 6416 1 108.377 276.144
6419 6420 6421 1 116.182 669.440
6420 6421 6422 1 123.014 418.400
6420 6421 6426 1 117.665 292.880
6421 6422 6423 1 112.146 669.440
6421 6422 6424 1 110.304 292.880
6421 6422 6425 1 109.909 292.880
6422 6421 6426 1 116.950 292.880
6423 6422 6424 1 108.147 292.880
6423 6422 6425 1 107.761 292.880
6424 6422 6425 1 108.464 276.144
6428 6429 6430 1 118.794 669.440
6429 6430 6431 1 123.066 418.400
6429 6430 6435 1 117.297 292.880
6430 6431 6432 1 112.574 669.440
6430 6431 6433 1 109.745 292.880
6430 6431 6434 1 110.254 292.880
6431 6430 6435 1 116.799 292.880
6432 6431 6433 1 107.865 292.880
6432 6431 6434 1 107.980 292.880
6433 6431 6434 1 108.297 276.144
6437 6438 6439 1 115.974 669.440
6438 6439 6440 1 122.748 418.400
6438 6439 6443 1 117.141 292.880
6439 6440 6441 1 109.799 292.880
6439 6440 6442 1 110.394 292.880
6440 6439 6443 1 116.431 292.880
6441 6440 6442 1 108.377 276.144
6445 6446 6447 1 116.182 669.440
6446 6447 6448 1 123.014 418.400
6446 6447 6451 1 117.665 292.880
6447 6448 6449 1 110.304 292.880
6447 6448 6450 1 109.909 292.880
6448 6447 6451 1 116.950 292.880
6449 6448 6450 1 108.464 276.144
6453 6454 6455 1 118.794 669.440
6454 6455 6456 1 123.066 418.400
6454 6455 6460 1 117.297 292.880
6455 6456 6457 1 112.574 669.440
6455 6456 6458 1 109.745 292.880
6455 6456 6459 1 110.254 292.880
6456 6455 6460 1 116.799 292.880
6457 6456 6458 1 107.865 292.880
6457 6456 6459 1 107.980 292.880
6458 6456 6459 1 108.297 276.144
6462 6463 6464 1 115.974 669.440
6463 6464 6465 1 122.748 418.400
6463 6464 6470 1 117.141 292.880
6464 6465 6466 1 112.203 669.440
6464 6465 6468 1 109.799 292.880
6464 6465 6469 1 110.394 292.880
6465 6464 6470 1 116.431 292.880
6465 6466 6467 1 107.831 460.240
6466 6465 6468 1 107.812 292.880
6466 6465 6469 1 108.141 292.880
6468 6465 6469 1 108.377 276.144
6472 6473 6474 1 116.182 669.440
6473 6474 6475 1 123.014 418.400
6473 6474 6480 1 117.665 292.880
6474 6475 6476 1 112.146 669.440
6474 6475 6478 1 110.304 292.880
6474 6475 6479 1 109.909 292.880
6475 6474 6480 1 116.950 292.880
6475 6476 6477 1 107.577 460.240
6476 6475 6478 1 108.147 292.880
6476 6475 6479 1 107.761 292.880
6478 6475 6479 1 108.464 276.144
6482 6483 6484 1 118.794 669.440
6483 6484 6485 1 123.066 418.400
6483 6484 6489 1 117.297 292.880
6484 6485 6486 1 112.574 669.440
6484 6485 6487 1 109.745 292.880
6484 6485 6488 1 110.254 292.880
6485 6484 6489 1 116.799 292.880
6486 6485 6487 1 107.865 292.880
6486 6485 6488 1 107.980 292.880
6487 6485 6488 1 108.297 276.144
6491 6492 6493 1 115.974 669.440
6492 6493 6494 1 122.748 418.400
6492 6493 6497 1 117.141 292.880
6493 6494 6495 1 109.799 292.880
6493 6494 6496 1 110.394 292.880
6494 6493 6497 1 116.431 292.880
6495 6494 6496 1 108.377 276.144
6499 6500 6501 1 116.182 669.440
6500 6501 6502 1 123.014 418.400
6500 6501 6506 1 117.665 292.880
6501 6502 6503 1 112.146 669.440
6501 6502 6504 1 110.304 292.880
6501 6502 6505 1 109.909 292.880
6502 6501 6506 1 116.950 292.880
6503 6502 6504 1 108.147 292.880
6503 6502 6505 1 107.761 292.880
6504 6502 6505 1 108.464 276.144
6508 6509 6510 1 118.794 669.440
6509 6510 6511 1 123.066 418.400
6509 6510 6515 1 117.297 292.880
6510 6511 6512 1 112.574 669.440
6510 6511 6513 1 109.745 292.880
6510 6511 6514 1 110.254 292.880
6511 6510 6515 1 116.799 292.880
6512 6511 6513 1 107.865 292.880
6512 6511 6514 1 107.980 292.880
6513 6511 6514 1 108.297 276.144
6517 6518 6519 1 115.974 669.440
6518 6519 6520 1 122.748 418.400
6518 6519 6523 1 117.141 292.880
6519 6520 6521 1 109.799 292.880
6519 6520 6522 1 110.394 292.880
6520 6519 6523 1 116.431 292.880
6521 6520 6522 1 108.377 276.144
6525 6526 6527 1 116.182 669.440
6526 6527 6528 1 123.014 418.400
6526 6527 6531 1 117.665 292.880
6527 6528 6529 1 110.304 292.880
6527 6528 6530 1 109.909 292.880
6528 6527 6531 1 116.950 292.880
6529 6528 6530 1 108.464 276.144
6533 6534 6535 1 118.794 669.440
6534 6535 6536 1 123.066 418.400
6534 6535 6540 1 117.297 292.880
6535 6536 6537 1 112.574 669.440
6535 6536 6538 1 109.745 292.880
6535 6536 6539 1 110.254 292.880
6536 6535 6540 1 116.799 292.880
6537 6536 6538 1 107.865 292.880
6537 6536 6539 1 107.980 292.880
6538 6536 6539 1 108.297 276.144
6542 6543 6544 1 115.974 669.440
6543 6544 6545 1 122.748 418.400
6543 6544 6548 1 117.141 292.880
6544 6545 6546 1 109.799 292.880
6544 6545 6547 1 110.394 292.880
6545 6544 6548 1 116.431 292.880
6546 6545 6547 1 108.377 276.144
6550 6551 6552 1 116.182 669.440
6551 6552 6553 1 123.014 418.400
6551 6552 6556 1 117.665 292.880
6552 6553 6554 1 110.304 292.880
6552 6553 6555 1 109.909 292.880
6553 6552 6556 1 116.950 292.880
6554 6553 6555 1 108.464 276.144
6558 6559 6560 1 118.794 669.440
6559 6560 6561 1 123.066 418.400
6559 6560 6565 1 117.297 292.880
6560 6561 6562 1 112.574 669.440
6560 6561 6563 1 109.745 292.880
6560 6561 6564 1 110.254 292.880
6561 6560 6565 1 116.799 292.880
6562 6561 6563 1 107.865 292.880
6562 6561 6564 1 107.980 292.880
6563 6561 6564 1 108.297 276.144
6567 6568 6569 1 115.974 669.440
6568 6569 6570 1 122.748 418.400
6568 6569 6574 1 117.141 292.880
6569 6570 6571 1 112.203 669.440
6569 6570 6572 1 109.799 292.880
6569 6570 6573 1 110.394 292.880
6570 6569 6574 1 116.431 292.880
6571 6570 6572 1 107.812 292.880
6571 6570 6573 1 108.141 292.880
6572 6570 6573 1 108.377 276.144
6576 6577 6578 1 116.182 669.440
6577 6578 6579 1 123.014 418.400
6577 6578 6582 1 117.665 292.880
6578 6579 6580 1 110.304 292.880
6578 6579 6581 1 109.909 292.880
6579 6578 6582 1 116.950 292.880
6580 6579 6581 1 108.464 276.144
6584 6585 6586 1 118.794 669.440
6585 6586 6587 1 123.066 418.400
6585 6586 6590 1 117.297 292.880
6586 6587 6588 1 109.745 292.880
6586 6587 6589 1 110.254 292.880
6587 6586 6590 1 116.799 292.880
6588 6587 6589 1 108.297 276.144
6592 6593 6594 1 115.974 669.440
6593 6594 6595 1 122.748 418.400
6593 6594 6599 1 117.141 292.880
6594 6595 6596 1 112.203 669.440
6594 6595 6597 1 109.799 292.880
6594 6595 6598 1 110.394 292.880
6595 6594 6599 1 116.431 292.880
6596 6595 6597 1 107.812 292.880
6596 6595 6598 1 108.141 292.880
6597 6595 6598 1 108.377 276.144
6601 6602 6603 1 116.182 669.440
6602 6603 6604 1 123.014 418.400
6602 6603 6607 1 117.665 292.880
6603 6604 6605 1 110.304 292.880
6603 6604 6606 1 109.909 292.880
6604 6603 6607 1 116.950 292.880
6605 6604 6606 1 108.464 276.144
6609 6610 6611 1 118.794 669.440
6610 6611 6612 1 123.066 418.400
6610 6611 6615 1 117.297 292.880
6611 6612 6613 1 109.745 292.880
6611 6612 6614 1 110.254 292.880
6612 6611 6615 1 116.799 292.880
6613 6612 6614 1 108.297 276.144
6617 6618 6619 1 115.974 669.440
6618 6619 6620 1 122.748 418.400
6618 6619 6623 1 117.141 292.880
6619 6620 6621 1 109.799 292.880
6619 6620 6622 1 110.394 292.880
6620 6619 6623 1 116.431 292.880
6621 6620 6622 1 108.377 276.144
6625 6626 6627 1 116.182 669.440
6626 6627 6628 1 123.014 418.400
6626 6627 6632 1 117.665 292.880
6627 6628 6629 1 112.146 669.440
6627 6628 6630 1 110.304 292.880
6627 6628 6631 1 109.909 292.880
6628 6627 6632 1 116.950 292.880
6629 6628 6630 1 108.147 292.880
6629 6628 6631 1 107.761 292.880
6630 6628 6631 1 108.464 276.144
6634 6635 6636 1 118.794 669.440
6635 6636 6637 1 123.066 418.400
6635 6636 6640 1 117.297 292.880
6636 6637 6638 1 109.745 292.880
6636 6637 6639 1 110.254 292.880
6637 6636 6640 1 116.799 292.880
6638 6637 6639 1 108.297 276.144
6642 6643 6644 1 115.974 669.440
6643 6644 6645 1 122.748 418.400
6643 6644 6648 1 117.141 292.880
6644 6645 6646 1 109.799 292.880
6644 6645 6647 1 110.394 292.880
6645 6644 6648 1 116.431 292.880
6646 6645 6647 1 108.377 276.144
6650 6651 6652 1 116.182 669.440
6651 6652 6653 1 123.014 418.400
6651 6652 6656 1 117.665 292.880
6652 6653 6654 1 110.304 292.880
6652 6653 6655 1 109.909 292.880
6653 6652 6656 1 116.950 292.880
6654 6653 6655 1 108.464 276.144
6658 6659 6660 1 118.794 669.440
6659 6660 6661 1 123.066 418.400
6659 6660 6664 1 117.297 292.880
6660 6661 6662 1 109.745 292.880
6660 6661 6663 1 110.254 292.880
6661 6660 6664 1 116.799 292.880
6662 6661 6663 1 108.297 276.144
6666 6667 6668 1 115.974 669.440
6667 6668 6669 1 122.748 418.400
6667 6668 6672 1 117.141 292.880
6668 6669 6670 1 109.799 292.880
6668 6669 6671 1 110.394 292.880
6669 6668 6672 1 116.431 292.880
6670 6669 6671 1 108.377 276.144
6674 6675 6676 1 116.182 669.440
6675 6676 6677 1 123.014 418.400
6675 6676 6680 1 117.665 292.880
6676 6677 6678 1 110.304 292.880
6676 6677 6679 1 109.909 292.880
6677 6676 6680 1 116.950 292.880
6678 6677 6679 1 108.464 276.144
6682 6683 6684 1 118.794 669.440
6683 6684 6685 1 123.066 418.400
6683 6684 6689 1 117.297 292.880
6684 6685 6686 1 112.574 669.440
6684 6685 6687 1 109.745 292.880
6684 6685 6688 1 110.254 292.880
6685 6684 6689 1 116.799 292.880
6686 6685 6687 1 107.865 292.880
6686 6685 6688 1 107.980 292.880
6687 6685 6688 1 108.297 276.144
6691 6692 6693 1 115.974 669.440
6692 6693 6694 1 122.748 418.400
6692 6693 6698 1 117.141 292.880
6693 6694 6695 1 112.203 669.440
6693 6694 6696 1 109.799 292.880
6693 6694 6697 1 110.394 292.880
6694 6693 6698 1 116.431 292.880
6695 6694 6696 1 107.812 292.880
6695 6694 6697 1 108.141 292.880
6696 6694 6697 1 108.377 276.144
6700 6701 6702 1 116.182 669.440
6701 6702 6703 1 123.014 418.400
6701 6702 6707 1 117.665 292.880
6702 6703 6704 1 112.146 669.440
6702 6703 6705 1 110.304 292.880
6702 6703 6706 1 109.909 292.880
6703 6702 6707 1 116.950 292.880
6704 6703 6705 1 108.147 292.880
6704 6703 6706 1 107.761 292.880
6705 6703 6706 1 108.464 276.144
6709 6710 6711 1 118.794 669.440
6710 6711 6712 1 123.066 418.400
6710 6711 6715 1 117.297 292.880
6711 6712 6713 1 109.745 292.880
6711 6712 6714 1 110.254 292.880
6712 6711 6715 1 116.799 292.880
6713 6712 6714 1 108.297 276.144
6717 6718 6719 1 115.974 669.440
6718 6719 6720 1 122.748 418.400
6718 6719 6724 1 117.141 292.880
6719 6720 6721 1 112.203 669.440
6719 6720 6722 1 109.799 292.880
6719 6720 6723 1 110.394 292.880
6720 6719 6724 1 116.431 292.880
6721 6720 6722 1 107.812 292.880
6721 6720 6723 1 108.141 292.880
6722 6720 6723 1 108.377 276.144
6726 6727 6728 1 116.182 669.440
6727 6728 6729 1 123.014 418.400
6727 6728 6733 1 117.665 292.880
6728 6729 6730 1 112.146 669.440
6728 6729 6731 1 110.304 292.880
6728 6729 6732 1 109.909 292.880
6729 6728 6733 1 116.950 292.880
6730 6729 6731 1 108.147 292.880
6730 6729 6732 1 107.761 292.880
6731 6729 6732 1 108.464 276.144
6735 6736 6737 1 118.794 669.440
6736 6737 6738 1 123.066 418.400
6736 6737 6741 1 117.297 292.880
6737 6738 6739 1 109.745 292.880
6737 6738 6740 1 110.254 292.880
6738 6737 6741 1 116.799 292.880
6739 6738 6740 1 108.297 276.144
6743 6744 6745 1 115.974 669.440
6744 6745 6746 1 122.748 418.400
6744 6745 6749 1 117.141 292.880
6745 6746 6747 1 109.799 292.880
6745 6746 6748 1 110.394 292.880
6746 6745 6749 1 116.431 292.880
6747 6746 6748 1 108.377 276.144
6751 6752 6753 1 116.182 669.440
6752 6753 6754 1 123.014 418.400
6752 6753 6758 1 117.665 292.880
6753 6754 6755 1 112.146 669.440
6753 6754 6756 1 110.304 292.880
6753 6754 6757 1 109.909 292.880
6754 6753 6758 1 116.950 292.880
6755 6754 6756 1 108.147 292.880
6755 6754 6757 1 107.761 292.880
6756 6754 6757 1 108.464 276.144
6760 6761 6762 1 118.794 669.440
6761 6762 6763 1 123.066 418.400
6761 6762 6767 1 117.297 292.880
6762 6763 6764 1 112.574 669.440
6762 6763 6765 1 109.745 292.880
6762 6763 6766 1 110.254 292.880
6763 6762 6767 1 116.799 292.880
6764 6763 6765 1 107.865 292.880
6764 6763 6766 1 107.980 292.880
6765 6763 6766 1 108.297 276.144
6769 6770 6771 1 115.974 669.440
6770 6771 6772 1 122.748 418.400
6770 6771 6776 1 117.141 292.880
6771 6772 6773 1 112.203 669.440
6771 6772 6774 1 109.799 292.880
6771 6772 6775 1 110.394 292.880
6772 6771 6776 1 116.431 292.880
6773 6772 6774 1 107.812 292.880
6773 6772 6775 1 108.141 292.880
6774 6772 6775 1 108.377 276.144
6778 6779 6780 1 116.182 669.440
6779 6780 6781 1 123.014 418.400
6779 6780 6784 1 117.665 292.880
6780 6781 6782 1 110.304 292.880
6780 6781 6783 1 109.909 292.880
6781 6780 6784 1 116.950 292.880
6782 6781 6783 1 108.464 276.144
6786 6787 6788 1 118.794 669.440
6787 6788 6789 1 123.066 418.400
6787 6788 6792 1 117.297 292.880
6788 6789 6790 1 109.745 292.880
6788 6789 6791 1 110.254 292.880
6789 6788 6792 1 116.799 292.880
6790 6789 6791 1 108.297 276.144
6794 6795 6796 1 115.974 669.440
6795 6796 6797 1 122.748 418.400
6795 6796 6801 1 117.141 292.880
6796 6797 6798 1 112.203 669.440
6796 6797 6799 1 109.799 292.880
6796 6797 6800 1 110.394 292.880
6797 6796 6801 1 116.431 292.880
6798 6797 6799 1 107.812 292.880
6798 6797 6800 1 108.141 292.880
6799 6797 6800 1 108.377 276.144
6803 6804 6805 1 116.182 669.440
6804 6805 6806 1 123.014 418.400
6804 6805 6810 1 117.665 292.880
6805 6806 6807 1 112.146 669.440
6805 6806 6808 1 110.304 292.880
6805 6806 6809 1 109.909 292.880
6806 6805 6810 1 116.950 292.880
6807 6806 6808 1 108.147 292.880
6807 6806 6809 1 107.761 292.880
6808 6806 6809 1 108.464 276.144
6812 6813 6814 1 118.794 669.440
6813 6814 6815 1 123.066 418.400
6813 6814 6818 1 117.297 292.880
6814 6815 6816 1 109.745 292.880
6814 6815 6817 1 110.254 292.880
6815 6814 6818 1 116.799 292.880
6816 6815 6817 1 108.297 276.144
6820 6821 6822 1 115.974 669.440
6821 6822 6823 1 122.748 418.400
6821 6822 6827 1 117.141 292.880
6822 6823 6824 1 112.203 669.440
6822 6823 6825 1 109.799 292.880
6822 6823 6826 1 110.394 292.880
6823 6822 6827 1 116.431 292.880
6824 6823 6825 1 107.812 292.880
6824 6823 6826 1 108.141 292.880
6825 6823 6826 1 108.377 276.144
6829 6830 6831 1 116.182 669.440
6830 6831 6832 1 123.014 418.400
6830 6831 6837 1 117.665 292.880
6831 6832 6833 1 112.146 669.440
6831 6832 6835 1 110.304 292.880
6831 6832 6836 1 109.909 292.880
6832 6831 6837 1 116.950 292.880
6832 6833 6834 1 107.577 460.240
6833 6832 6835 1 108.147 292.880
6833 6832 6836 1 107.761 292.880
6835 6832 6836 1 108.464 276.144
6839 6840 6841 1 118.794 669.440
6840 6841 6842 1 123.066 418.400
6840 6841 6845 1 117.297 292.880
6841 6842 6843 1 109.745 292.880
6841 6842 6844 1 110.254 292.880
6842 6841 6845 1 116.799 292.880
6843 6842 6844 1 108.297 276.144
6847 6848 6849 1 115.974 669.440
6848 6849 6850 1 122.748 418.400
6848 6849 6853 1 117.141 292.880
6849 6850 6851 1 109.799 292.880
6849 6850 6852 1 110.394 292.880
6850 6849 6853 1 116.431 292.880
6851 6850 6852 1 108.377 276.144
6855 6856 6857 1 116.182 669.440
6856 6857 6858 1 123.014 418.400
6856 6857 6861 1 117.665 292.880
6857 6858 6859 1 110.304 292.880
6857 6858 6860 1 109.909 292.880
6858 6857 6861 1 116.950 292.880
6859 6858 6860 1 108.464 276.144
6863 6864 6865 1 118.794 669.440
6864 6865 6866 1 123.066 418.400
6864 6865 6869 1 117.297 292.880
6865 6866 6867 1 109.745 292.880
6865 6866 6868 1 110.254 292.880
6866 6865 6869 1 116.799 292.880
6867 6866 6868 1 108.297 276.144
6871 6872 6873 1 115.974 669.440
6872 6873 6874 1 122.748 418.400
6872 6873 6878 1 117.141 292.880
6873 6874 6875 1 112.203 669.440
6873 6874 6876 1 109.799 292.880
6873 6874 6877 1 110.394 292.880
6874 6873 6878 1 116.431 292.880
6875 6874 6876 1 107.812 292.880
6875 6874 6877 1 108.141 292.880
6876 6874 6877 1 108.377 276.144
6880 6881 6882 1 116.182 669.440
6881 6882 6883 1 123.014 418.400
6881 6882 6887 1 117.665 292.880
6882 6883 6884 1 112.146 669.440
6882 6883 6885 1 110.304 292.880
6882 6883 6886 1 109.909 292.880
6883 6882 6887 1 116.950 292.880
6884 6883 6885 1 108.147 292.880
6884 6883 6886 1 107.761 292.880
6885 6883 6886 1 108.464 276.144
6889 6890 6891 1 118.794 669.440
6890 6891 6892 1 123.066 418.400
6890 6891 6896 1 117.297 292.880
6891 6892 6893 1 112.574 669.440
6891 6892 6894 1 109.745 292.880
6891 6892 6895 1 110.254 292.880
6892 6891 6896 1 116.799 292.880
6893 6892 6894 1 107.865 292.880
6893 6892 6895 1 107.980 292.880
6894 6892 6895 1 108.297 276.144
6898 6899 6900 1 115.974 669.440
6899 6900 6901 1 122.748 418.400
6899 6900 6904 1 117.141 292.880
6900 6901 6902 1 109.799 292.880
6900 6901 6903 1 110.394 292.880
6901 6900 6904 1 116.431 292.880
6902 6901 6903 1 108.377 276.144
6906 6907 6908 1 116.182 669.440
6907 6908 6909 1 123.014 418.400
6907 6908 6912 1 117.665 292.880
6908 6909 6910 1 110.304 292.880
6908 6909 6911 1 109.909 292.880
6909 6908 6912 1 116.950 292.880
6910 6909 6911 1 108.464 276.144
6914 6915 6916 1 118.794 669.440
6915 6916 6917 1 123.066 418.400
6915 6916 6920 1 117.297 292.880
6916 6917 6918 1 109.745 292.880
6916 6917 6919 1 110.254 292.880
6917 6916 6920 1 116.799 292.880
6918 6917 6919 1 108.297 276.144
6922 6923 6924 1 115.974 669.440
6923 6924 6925 1 122.748 418.400
6923 6924 6929 1 117.141 292.880
6924 6925 6926 1 112.203 669.440
6924 6925 6927 1 109.799 292.880
6924 6925 6928 1 110.394 292.880
6925 6924 6929 1 116.431 292.880
6926 6925 6927 1 107.812 292.880
6926 6925 6928 1 108.141 292.880
6927 6925 6928 1 108.377 276.144
6931 6932 6933 1 116.182 669.440
6932 6933 6934 1 123.014 418.400
6932 6933 6937 1 117.665 292.880
6933 6934 6935 1 110.304 292.880
6933 6934 6936 1 109.909 292.880
6934 6933 6937 1 116.950 292.880
6935 6934 6936 1 108.464 276.144
6939 6940 6941 1 118.794 669.440
6940 6941 6942 1 123.066 418.400
6940 6941 6946 1 117.297 292.880
6941 6942 6943 1 112.574 669.440
6941 6942 6944 1 109.745 292.880
6941 6942 6945 1 110.254 292.880
6942 6941 6946 1 116.799 292.880
6943 6942 6944 1 107.865 292.880
6943 6942 6945 1 107.980 292.880
6944 6942 6945 1 108.297 276.144
6948 6949 6950 1 115.974 669.440
6949 6950 6951 1 122.748 418.400
6949 6950 6955 1 117.141 292.880
6950 6951 6952 1 112.203 669.440
6950 6951 6953 1 109.799 292.880
6950 6951 6954 1 110.394 292.880
6951 6950 6955 1 116.431 292.880
6952 6951 6953 1 107.812 292.880
6952 6951 6954 1 108.141 292.880
6953 6951 6954 1 108.377 276.144
6957 6958 6959 1 116.182 669.440
6958 6959 6960 1 123.014 418.400
6958 6959 6963 1 117.665 292.880
6959 6960 6961 1 110.304 292.880
6959 6960 6962 1 109.909 292.880
6960 6959 6963 1 116.950 292.880
6961 6960 6962 1 108.464 276.144
6965 6966 6967 1 118.794 669.440
6966 6967 6968 1 123.066 418.400
6966 6967 6971 1 117.297 292.880
6967 6968 6969 1 109.745 292.880
6967 6968 6970 1 110.254 292.880
6968 6967 6971 1 116.799 292.880
6969 6968 6970 1 108.297 276.144
6973 6974 6975 1 115.974 669.440
6974 6975 6976 1 122.748 418.400
6974 6975 6980 1 117.141 292.880
6975 6976 6977 1 112.203 669.440
6975 6976 6978 1 109.799 292.880
6975 6976 6979 1 110.394 292.880
6976 6975 6980 1 116.431 292.880
6977 6976 6978 1 107.812 292.880
6977 6976 6979 1 108.141 292.880
6978 6976 6979 1 108.377 276.144
6982 6983 6984 1 116.182 669.440
6983 6984 6985 1 123.014 418.400
6983 6984 6988 1 117.665 292.880
6984 6985 6986 1 110.304 292.880
6984 6985 6987 1 109.909 292.880
6985 6984 6988 1 116.950 292.880
6986 6985 6987 1 108.464 276.144
6990 6991 6992 1 118.794 669.440
6991 6992 6993 1 123.066 418.400
6991 6992 6996 1 117.297 292.880
6992 6993 6994 1 109.745 292.880
6992 6993 6995 1 110.254 292.880
6993 6992 6996 1 116.799 292.880
6994 6993 6995 1 108.297 276.144
6998 6999 7000 1 115.974 669.440
6999 7000 7001 1 122.748 418.400
6999 7000 7005 1 117.141 292.880
7000 7001 7002 1 112.203 669.440
7000 7001 7003 1 109.799 292.880
7000 7001 7004 1 110.394 292.880
7001 7000 7005 1 116.431 292.880
7002 7001 7003 1 107.812 292.880
7002 7001 7004 1 108.141 292.880
7003 7001 7004 1 108.377 276.144
7007 7008 7009 1 116.182 669.440
7008 7009 7010 1 123.014 418.400
7008 7009 7015 1 117.665 292.880
7009 7010 7011 1 112.146 669.440
7009 7010 7013 1 110.304 292.880
7009 7010 7014 1 109.909 292.880
7010 7009 7015 1 116.950 292.880
7010 7011 7012 1 107.577 460.240
7011 7010 7013 1 108.147 292.880
7011 7010 7014 1 107.761 292.880
7013 7010 7014 1 108.464 276.144
7017 7018 7019 1 118.794 669.440
7018 7019 7020 1 123.066 418.400
7018 7019 7024 1 117.297 292.880
7019 7020 7021 1 112.574 669.440
7019 7020 7022 1 109.745 292.880
7019 7020 7023 1 110.254 292.880
7020 7019 7024 1 116.799 292.880
7021 7020 7022 1 107.865 292.880
7021 7020 7023 1 107.980 292.880
7022 7020 7023 1 108.297 276.144
7026 7027 7028 1 115.974 669.440
7027 7028 7029 1 122.748 418.400
7027 7028 7033 1 117.141 292.880
7028 7029 7030 1 112.203 669.440
7028 7029 7031 1 109.799 292.880
7028 7029 7032 1 110.394 292.880
7029 7028 7033 1 116.431 292.880
7030 7029 7031 1 107.812 292.880
7030 7029 7032 1 108.141 292.880
7031 7029 7032 1 108.377 276.144
7035 7036 7037 1 116.182 669.440
7036 7037 7038 1 123.014 418.400
7036 7037 7042 1 117.665 292.880
7037 7038 7039 1 112.146 669.440
7037 7038 7040 1 110.304 292.880
7037 7038 7041 1 109.909 292.880
7038 7037 7042 1 116.950 292.880
7039 7038 7040 1 108.147 292.880
7039 7038 7041 1 107.761 292.880
7040 7038 7041 1 108.464 276.144
7044 7045 7046 1 118.794 669.440
7045 7046 7047 1 123.066 418.400
7045 7046 7052 1 117.297 292.880
7046 7047 7048 1 112.574 669.440
7046 7047 7050 1 109.745 292.880
7046 7047 7051 1 110.254 292.880
7047 7046 7052 1 116.799 292.880
7047 7048 7049 1 108.806 460.240
7048 7047 7050 1 107.865 292.880
7048 7047 7051 1 107.980 292.880
7050 7047 7051 1 108.297 276.144
7054 7055 7056 1 115.974 669.440
7055 7056 7057 1 122.748 418.400
7055 7056 7060 1 117.141 292.880
7056 7057 7058 1 109.799 292.880
7056 7057 7059 1 110.394 292.880
7057 7056 7060 1 116.431 292.880
7058 7057 7059 1 108.377 276.144
7062 7063 7064 1 116.182 669.440
7063 7064 7065 1 123.014 418.400
7063 7064 7068 1 117.665 292.880
7064 7065 7066 1 110.304 292.880
7064 7065 7067 1 109.909 292.880
7065 7064 7068 1 116.950 292.880
7066 7065 7067 1 108.464 276.144
7070 7071 7072 1 118.794 669.440
7071 7072 7073 1 123.066 418.400
7071 7072 7076 1 117.297 292.880
7072 7073 7074 1 109.745 292.880
7072 7073 7075 1 110.254 292.880
7073 7072 7076 1 116.799 292.880
7074 7073 7075 1 108.297 276.144
7078 7079 7080 1 115.974 669.440
7079 7080 7081 1 122.748 418.400
7079 7080 7084 1 117.141 292.880
7080 7081 7082 1 109.799 292.880
7080 7081 7083 1 110.394 292.880
7081 7080 7084 1 116.431 292.880
7082 7081 7083 1 108.377 276.144
7086 7087 7088 1 116.182 669.440
7087 7088 7089 1 123.014 418.400
7087 7088 7094 1 117.665 292.880
7088 7089 7090 1 112.146 669.440
7088 7089 7092 1 110.304 292.880
7088 7089 7093 1 109.909 292.880
7089 7088 7094 1 116.950 292.880
7089 7090 7091 1 107.577 460.240
7090 7089 7092 1 108.147 292.880
7090 7089 7093 1 107.761 292.880
7092 7089 7093 1 108.464 276.144
7096 7097 7098 1 118.794 669.440
7097 7098 7099 1 123.066 418.400
7097 7098 7103 1 117.297 292.880
7098 7099 7100 1 112.574 669.440
7098 7099 7101 1 109.745 292.880
7098 7099 7102 1 110.254 292.880
7099 7098 7103 1 116.799 292.880
7100 7099 7101 1 107.865 292.880
7100 7099 7102 1 107.980 292.880
7101 7099 7102 1 108.297 276.144
7105 7106 7107 1 115.974 669.440
7106 7107 7108 1 122.748 418.400
7106 7107 7112 1 117.141 292.880
7107 7108 7109 1 112.203 669.440
7107 7108 7110 1 109.799 292.880
7107 7108 7111 1 110.394 292.880
7108 7107 7112 1 116.431 292.880
7109 7108 7110 1 107.812 292.880
7109 7108 7111 1 108.141 292.880
7110 7108 7111 1 108.377 276.144
7114 7115 7116 1 116.182 669.440
7115 7116 7117 1 123.014 418.400
7115 7116 7120 1 117.665 292.880
7116 7117 7118 1 110.304 292.880
7116 7117 7119 1 109.909 292.880
7117 7116 7120 1 116.950 292.880
7118 7117 7119 1 108.464 276.144
7122 7123 7124 1 118.794 669.440
7123 7124 7125 1 123.066 418.400
7123 7124 7129 1 117.297 292.880
7124 7125 7126 1 112.574 669.440
7124 7125 7127 1 109.745 292.880
7124 7125 7128 1 110.254 292.880
7125 7124 7129 1 116.799 292.880
7126 7125 7127 1 107.865 292.880
7126 7125 7128 1 107.980 292.880
7127 7125 7128 1 108.297 276.144
7131 7132 7133 1 115.974 669.440
7132 7133 7134 1 122.748 418.400
7132 7133 7137 1 117.141 292.880
7133 7134 7135 1 109.799 292.880
7133 7134 7136 1 110.394 292.880
7134 7133 7137 1 116.431 292.880
7135 7134 7136 1 108.377 276.144
7139 7140 7141 1 116.182 669.440
7140 7141 7142 1 123.014 418.400
7140 7141 7145 1 117.665 292.880
7141 7142 7143 1 110.304 292.880
7141 7142 7144 1 109.909 292.880
7142 7141 7145 1 116.950 292.880
7143 7142 7144 1 108.464 276.144
7147 7148 7149 1 118.794 669.440
7148 7149 7150 1 123.066 418.400
7148 7149 7153 1 117.297 292.880
7149 7150 7151 1 109.745 292.880
7149 7150 7152 1 110.254 292.880
7150 7149 7153 1 116.799 292.880
7151 7150 7152 1 108.297 276.144
7155 7156 7157 1 115.974 669.440
7156 7157 7158 1 122.748 418.400
7156 7157 7162 1 117.141 292.880
7157 7158 7159 1 112.203 669.440
7157 7158 7160 1 109.799 292.880
7157 7158 7161 1 110.394 292.880
7158 7157 7162 1 116.431 292.880
7159 7158 7160 1 107.812 292.880
7159 7158 7161 1 108.141 292.880
7160 7158 7161 1 108.377 276.144
7164 7165 7166 1 116.182 669.440
7165 7166 7167 1 123.014 418.400
7165 7166 7171 1 117.665 292.880
7166 7167 7168 1 112.146 669.440
7166 7167 7169 1 110.304 292.880
7166 7167 7170 1 109.909 292.880
7167 7166 7171 1 116.950 292.880
7168 7167 7169 1 108.147 292.880
7168 7167 7170 1 107.761 292.880
7169 7167 7170 1 108.464 276.144
7173 7174 7175 1 118.794 669.440
7174 7175 7176 1 123.066 418.400
7174 7175 7180 1 117.297 292.880
7175 7176 7177 1 112.574 669.440
7175 7176 7178 1 109.745 292.880
7175 7176 7179 1 110.254 292.880
7176 7175 7180 1 116.799 292.880
7177 7176 7178 1 107.865 292.880
7177 7176 7179 1 107.980 292.880
7178 7176 7179 1 108.297 276.144
7182 7183 7184 1 115.974 669.440
7183 7184 7185 1 122.748 418.400
7183 7184 7190 1 117.141 292.880
7184 7185 7186 1 112.203 669.440
7184 7185 7188 1 109.799 292.880
7184 7185 7189 1 110.394 292.880
7185 7184 7190 1 116.431 292.880
7185 7186 7187 1 107.831 460.240
7186 7185 7188 1 107.812 292.880
7186 7185 7189 1 108.141 292.880
7188 7185 7189 1 108.377 276.144
7192 7193 7194 1 116.182 669.440
7193 7194 7195 1 123.014 418.400
7193 7194 7198 1 117.665 292.880
7194 7195 7196 1 110.304 292.880
7194 7195 7197 1 109.909 292.880
7195 7194 7198 1 116.950 292.880
7196 7195 7197 1 108.464 276.144
7200 7201 7202 1 118.794 669.440
7201 7202 7203 1 123.066 418.400
7201 7202 7206 1 117.297 292.880
7202 7203 7204 1 109.745 292.880
7202 7203 7205 1 110.254 292.880
7203 7202 7206 1 116.799 292.880
7204 7203 7205 1 108.297 276.144
7208 7209 7210 1 115.974 669.440
7209 7210 7211 1 122.748 418.400
7209 7210 7214 1 117.141 292.880
7210 7211 7212 1 109.799 292.880
7210 7211 7213 1 110.394 292.880
7211 7210 7214 1 116.431 292.880
7212 7211 7213 1 108.377 276.144
7216 7217 7218 1 116.182 669.440
7217 7218 7219 1 123.014 418.400
7217 7218 7223 1 117.665 292.880
7218 7219 7220 1 112.146 669.440
7218 7219 7221 1 110.304 292.880
7218 7219 7222 1 109.909 292.880
7219 7218 7223 1 116.950 292.880
7220 7219 7221 1 108.147 292.880
7220 7219 7222 1 107.761 292.880
7221 7219 7222 1 108.464 276.144
7225 7226 7227 1 118.794 669.440
7226 7227 7228 1 123.066 418.400
7226 7227 7232 1 117.297 292.880
7227 7228 7229 1 112.574 669.440
7227 7228 7230 1 109.745 292.880
7227 7228 7231 1 110.254 292.880
7228 7227 7232 1 116.799 292.880
7229 7228 7230 1 107.865 292.880
7229 7228 7231 1 107.980 292.880
7230 7228 7231 1 108.297 276.144
7234 7235 7236 1 115.974 669.440
7235 7236 7237 1 122.748 418.400
7235 7236 7240 1 117.141 292.880
7236 7237 7238 1 109.799 292.880
7236 7237 7239 1 110.394 292.880
7237 7236 7240 1 116.431 292.880
7238 7237 7239 1 108.377 276.144
7242 7243 7244 1 116.182 669.440
7243 7244 7245 1 123.014 418.400
7243 7244 7248 1 117.665 292.880
7244 7245 7246 1 110.304 292.880
7244 7245 7247 1 109.909 292.880
7245 7244 7248 1 116.950 292.880
7246 7245 7247 1 108.464 276.144
7250 7251 7252 1 118.794 669.440
7251 7252 7253 1 123.066 418.400
7251 7252 7258 1 117.297 292.880
7252 7253 7254 1 112.574 669.440
7252 7253 7256 1 109.745 292.880
7252 7253 7257 1 110.254 292.880
7253 7252 7258 1 116.799 292.880
7253 7254 7255 1 108.806 460.240
7254 7253 7256 1 107.865 292.880
7254 7253 7257 1 107.980 292.880
7256 7253 7257 1 108.297 276.144
7260 7261 7262 1 115.974 669.440
7261 7262 7263 1 122.748 418.400
7261 7262 7266 1 117.141 292.880
7262 7263 7264 1 109.799 292.880
7262 7263 7265 1 110.394 292.880
7263 7262 7266 1 116.431 292.880
7264 7263 7265 1 108.377 276.144
7268 7269 7270 1 116.182 669.440
7269 7270 7271 1 123.014 418.400
7269 7270 7274 1 117.665 292.880
7270 7271 7272 1 110.304 292.880
7270 7271 7273 1 109.909 292.880
7271 7270 7274 1 116.950 292.880
7272 7271 7273 1 108.464 276.144
7276 7277 7278 1 118.794 669.440
7277 7278 7279 1 123.066 418.400
7277 7278 7283 1 117.297 292.880
7278 7279 7280 1 112.574 669.440
7278 7279 7281 1 109.745 292.880
7278 7279 7282 1 110.254 292.880
7279 7278 7283 1 116.799 292.880
7280 7279 7281 1 107.865 292.880
7280 7279 7282 1 107.980 292.880
7281 7279 7282 1 108.297 276.144
7285 7286 7287 1 115.974 669.440
7286 7287 7288 1 122.748 418.400
7286 7287 7291 1 117.141 292.880
7287 7288 7289 1 109.799 292.880
7287 7288 7290 1 110.394 292.880
7288 7287 7291 1 116.431 292.880
7289 7288 7290 1 108.377 276.144
7293 7294 7295 1 116.182 669.440
7294 7295 7296 1 123.014 418.400
7294 7295 7301 1 117.665 292.880
7295 7296 7297 1 112.146 669.440
7295 7296 7299 1 110.304 292.880
7295 7296 7300 1 109.909 292.880
7296 7295 7301 1 116.950 292.880
7296 7297 7298 1 107.577 460.240
7297 7296 7299 1 108.147 292.880
7297 7296 7300 1 107.761 292.880
7299 7296 7300 1 108.464 276.144
7303 7304 7305 1 118.794 669.440
7304 7305 7306 1 123.066 418.400
7304 7305 7310 1 117.297 292.880
7305 7306 7307 1 112.574 669.440
7305 7306 7308 1 109.745 292.880
7305 7306 7309 1 110.254 292.880
7306 7305 7310 1 116.799 292.880
7307 7306 7308 1 107.865 292.880
7307 7306 7309 1 107.980 292.880
7308 7306 7309 1 108.297 276.144
7312 7313 7314 1 115.974 669.440
7313 7314 7315 1 122.748 418.400
7313 7314 7319 1 117.141 292.880
7314 7315 7316 1 112.203 669.440
7314 7315 7317 1 109.799 292.880
7314 7315 7318 1 110.394 292.880
7315 7314 7319 1 116.431 292.880
7316 7315 7317 1 107.812 292.880
7316 7315 7318 1 108.141 292.880
7317 7315 7318 1 108.377 276.144
7321 7322 7323 1 116.182 669.440
7322 7323 7324 1 123.014 418.400
7322 7323 7328 1 117.665 292.880
7323 7324 7325 1 112.146 669.440
7323 7324 7326 1 110.304 292.880
7323 7324 7327 1 109.909 292.880
7324 7323 7328 1 116.950 292.880
7325 7324 7326 1 108.147 292.880
7325 7324 7327 1 107.761 292.880
7326 7324 7327 1 108.464 276.144
7330 7331 7332 1 118.794 669.440
7331 7332 7333 1 123.066 418.400
7331 7332 7338 1 117.297 292.880
7332 7333 7334 1 112.574 669.440
7332 7333 7336 1 109.745 292.880
7332 7333 7337 1 110.254 292.880
7333 7332 7338 1 116.799 292.880
7333 7334 7335 1 108.806 460.240
7334 7333 7336 1 107.865 292.880
7334 7333 7337 1 107.980 292.880
7336 7333 7337 1 108.297 276.144
7340 7341 7342 1 115.974 669.440
7341 7342 7343 1 122.748 418.400
7341 7342 7346 1 117.141 292.880
7342 7343 7344 1 109.799 292.880
7342 7343 7345 1 110.394 292.880
7343 7342 7346 1 116.431 292.880
7344 7343 7345 1 108.377 276.144
7348 7349 7350 1 116.182 669.440
7349 7350 7351 1 123.014 418.400
7349 7350 7354 1 117.665 292.880
7350 7351 7352 1 110.304 292.880
7350 7351 7353 1 109.909 292.880
7351 7350 7354 1 116.950 292.880
7352 7351 7353 1 108.464 276.144
7356 7357 7358 1 118.794 669.440
7357 7358 7359 1 123.066 418.400
7357 7358 7362 1 117.297 292.880
7358 7359 7360 1 109.745 292.880
7358 7359 7361 1 110.254 292.880
7359 7358 7362 1 116.799 292.880
7360 7359 7361 1 108.297 276.144
7364 7365 7366 1 115.974 669.440
7365 7366 7367 1 122.748 418.400
7365 7366 7371 1 117.141 292.880
7366 7367 7368 1 112.203 669.440
7366 7367 7369 1 109.799 292.880
7366 7367 7370 1 110.394 292.880
7367 7366 7371 1 116.431 292.880
7368 7367 7369 1 107.812 292.880
7368 7367 7370 1 108.141 292.880
7369 7367 7370 1 108.377 276.144
7373 7374 7375 1 116.182 669.440
7374 7375 7376 1 123.014 418.400
7374 7375 7381 1 117.665 292.880
7375 7376 7377 1 112.146 669.440
7375 7376 7379 1 110.304 292.880
7375 7376 7380 1 109.909 292.880
7376 7375 7381 1 116.950 292.880
7376 7377 7378 1 107.577 460.240
7377 7376 7379 1 108.147 292.880
7377 7376 7380 1 107.761 292.880
7379 7376 7380 1 108.464 276.144
7383 7384 7385 1 118.794 669.440
7384 7385 7386 1 123.066 418.400
7384 7385 7390 1 117.297 292.880
7385 7386 7387 1 112.574 669.440
7385 7386 7388 1 109.745 292.880
7385 7386 7389 1 110.254 292.880
7386 7385 7390 1 116.799 292.880
7387 7386 7388 1 107.865 292.880
7387 7386 7389 1 107.980 292.880
7388 7386 7389 1 108.297 276.144
7392 7393 7394 1 115.974 669.440
7393 7394 7395 1 122.748 418.400
7393 7394 7398 1 117.141 292.880
7394 7395 7396 1 109.799 292.880
7394 7395 7397 1 110.394 292.880
7395 7394 7398 1 116.431 292.880
7396 7395 7397 1 108.377 276.144
7400 7401 7402 1 116.182 669.440
7401 7402 7403 1 123.014 418.400
7401 7402 7406 1 117.665 292.880
7402 7403 7404 1 110.304 292.880
7402 7403 7405 1 109.909 292.880
7403 7402 7406 1 116.950 292.880
7404 7403 7405 1 108.464 276.144
7408 7409 7410 1 118.794 669.440
7409 7410 7411 1 123.066 418.400
7409 7410 7414 1 117.297 292.880
7410 7411 7412 1 109.745 292.880
7410 7411 7413 1 110.254 292.880
7411 7410 7414 1 116.799 292.880
7412 7411 7413 1 108.297 276.144
7416 7417 7418 1 115.974 669.440
7417 7418 7419 1 122.748 418.400
7417 7418 7422 1 117.141 292.880
7418 7419 7420 1 109.799 292.880
7418 7419 7421 1 110.394 292.880
7419 7418 7422 1 116.431 292.880
7420 7419 7421 1 108.377 276.144
7424 7425 7426 1 116.182 669.440
7425 7426 7427 1 123.014 418.400
7425 7426 7430 1 117.665 292.880
7426 7427 7428 1 110.304 292.880
7426 7427 7429 1 109.909 292.880
7427 7426 7430 1 116.950 292.880
7428 7427 7429 1 108.464 276.144
7432 7433 7434 1 118.794 669.440
7433 7434 7435 1 123.066 418.400
7433 7434 7438 1 117.297 292.880
7434 7435 7436 1 109.745 292.880
7434 7435 7437 1 110.254 292.880
7435 7434 7438 1 116.799 292.880
7436 7435 7437 1 108.297 276.144
7440 7441 7442 1 115.974 669.440
7441 7442 7443 1 122.748 418.400
7441 7442 7446 1 117.141 292.880
7442 7443 7444 1 109.799 292.880
7442 7443 7445 1 110.394 292.880
7443 7442 7446 1 116.431 292.880
7444 7443 7445 1 108.377 276.144
7448 7449 7450 1 116.182 669.440
7449 7450 7451 1 123.014 418.400
7449 7450 7455 1 117.665 292.880
7450 7451 7452 1 112.146 669.440
7450 7451 7453 1 110.304 292.880
7450 7451 7454 1 109.909 292.880
7451 7450 7455 1 116.950 292.880
7452 7451 7453 1 108.147 292.880
7452 7451 7454 1 107.761 292.880
7453 7451 7454 1 108.464 276.144
7457 7458 7459 1 118.794 669.440
7458 7459 7460 1 123.066 418.400
7458 7459 7464 1 117.297 292.880
7459 7460 7461 1 112.574 669.440
7459 7460 7462 1 109.745 292.880
7459 7460 7463 1 110.254 292.880
7460 7459 7464 1 116.799 292.880
7461 7460 7462 1 107.865 292.880
7461 7460 7463 1 107.980 292.880
7462 7460 7463 1 108.297 276.144
7466 7467 7468 1 115.974 669.440
7467 7468 7469 1 122.748 418.400
7467 7468 7472 1 117.141 292.880
7468 7469 7470 1 109.799 292.880
7468 7469 7471 1 110.394 292.880
7469 7468 7472 1 116.431 292.880
7470 7469 7471 1 108.377 276.144
7474 7475 7476 1 116.182 669.440
7475 7476 7477 1 123.014 418.400
7475 7476 7480 1 117.665 292.880
7476 7477 7478 1 110.304 292.880
7476 7477 7479 1 109.909 292.880
7477 7476 7480 1 116.950 292.880
7478 7477 7479 1 108.464 276.144
7482 7483 7484 1 118.794 669.440
7483 7484 7485 1 123.066 418.400
7483 7484 7490 1 117.297 292.880
7484 7485 7486 1 112.574 669.440
7484 7485 7488 1 109.745 292.880
7484 7485 7489 1 110.254 292.880
7485 7484 7490 1 116.799 292.880
7485 7486 7487 1 108.806 460.240
7486 7485 7488 1 107.865 292.880
7486 7485 7489 1 107.980 292.880
7488 7485 7489 1 108.297 276.144
7492 7493 7494 1 115.974 669.440
7493 7494 7495 1 122.748 418.400
7493 7494 7499 1 117.141 292.880
7494 7495 7496 1 112.203 669.440
7494 7495 7497 1 109.799 292.880
7494 7495 7498 1 110.394 292.880
7495 7494 7499 1 116.431 292.880
7496 7495 7497 1 107.812 292.880
7496 7495 7498 1 108.141 292.880
7497 7495 7498 1 108.377 276.144
7501 7502 7503 1 116.182 669.440
7502 7503 7504 1 123.014 418.400
7502 7503 7507 1 117.665 292.880
7503 7504 7505 1 110.304 292.880
7503 7504 7506 1 109.909 292.880
7504 7503 7507 1 116.950 292.880
7505 7504 7506 1 108.464 276.144
7509 7510 7511 1 118.794 669.440
7510 7511 7512 1 123.066 418.400
7510 7511 7516 1 117.297 292.880
7511 7512 7513 1 112.574 669.440
7511 7512 7514 1 109.745 292.880
7511 7512 7515 1 110.254 292.880
7512 7511 7516 1 116.799 292.880
7513 7512 7514 1 107.865 292.880
7513 7512 7515 1 107.980 292.880
7514 7512 7515 1 108.297 276.144
7518 7519 7520 1 115.974 669.440
7519 7520 7521 1 122.748 418.400
7519 7520 7525 1 117.141 292.880
7520 7521 7522 1 112.203 669.440
7520 7521 7523 1 109.799 292.880
7520 7521 7524 1 110.394 292.880
7521 7520 7525 1 116.431 292.880
7522 7521 7523 1 107.812 292.880
7522 7521 7524 1 108.141 292.880
7523 7521 7524 1 108.377 276.144
7527 7528 7529 1 116.182 669.440
7528 7529 7530 1 123.014 418.400
7528 7529 7533 1 117.665 292.880
7529 7530 7531 1 110.304 292.880
7529 7530 7532 1 109.909 292.880
7530 7529 7533 1 116.950 292.880
7531 7530 7532 1 108.464 276.144
7535 7536 7537 1 118.794 669.440
7536 7537 7538 1 123.066 418.400
7536 7537 7542 1 117.297 292.880
7537 7538 7539 1 112.574 669.440
7537 7538 7540 1 109.745 292.880
7537 7538 7541 1 110.254 292.880
7538 7537 7542 1 116.799 292.880
7539 7538 7540 1 107.865 292.880
7539 7538 7541 1 107.980 292.880
7540 7538 7541 1 108.297 276.144
7544 7545 7546 1 115.974 669.440
7545 7546 7547 1 122.748 418.400
7545 7546 7550 1 117.141 292.880
7546 7547 7548 1 109.799 292.880
7546 7547 7549 1 110.394 292.880
7547 7546 7550 1 116.431 292.880
7548 7547 7549 1 108.377 276.144
7552 7553 7554 1 116.182 669.440
7553 7554 7555 1 123.014 418.400
7553 7554 7559 1 117.665 292.880
7554 7555 7556 1 112.146 669.440
7554 7555 7557 1 110.304 292.880
7554 7555 7558 1 109.909 292.880
7555 7554 7559 1 116.950 292.880
7556 7555 7557 1 108.147 292.880
7556 7555 7558 1 107.761 292.880
7557 7555 7558 1 108.464 276.144
7561 7562 7563 1 118.794 669.440
7562 7563 7564 1 123.066 418.400
7562 7563 7568 1 117.297 292.880
7563 7564 7565 1 112.574 669.440
7563 7564 7566 1 109.745 292.880
7563 7564 7567 1 110.254 292.880
7564 7563 7568 1 116.799 292.880
7565 7564 7566 1 107.865 292.880
7565 7564 7567 1 107.980 292.880
7566 7564 7567 1 108.297 276.144
7570 7571 7572 1 115.974 669.440
7571 7572 7573 1 122.748 418.400
7571 7572 7577 1 117.141 292.880
7572 7573 7574 1 112.203 669.440
7572 7573 7575 1 109.799 292.880
7572 7573 7576 1 110.394 292.880
7573 7572 7577 1 116.431 292.880
7574 7573 7575 1 107.812 292.880
7574 7573 7576 1 108.141 292.880
7575 7573 7576 1 108.377 276.144
7579 7580 7581 1 116.182 669.440
7580 7581 7582 1 123.014 418.400
7580 7581 7586 1 117.665 292.880
7581 7582 7583 1 112.146 669.440
7581 7582 7584 1 110.304 292.880
7581 7582 7585 1 109.909 292.880
7582 7581 7586 1 116.950 292.880
7583 7582 7584 1 108.147 292.880
7583 7582 7585 1 107.761 292.880
7584 7582 7585 1 108.464 276.144
7588 7589 7590 1 118.794 669.440
7589 7590 7591 1 123.066 418.400
7589 7590 7596 1 117.297 292.880
7590 7591 7592 1 112.574 669.440
7590 7591 7594 1 109.745 292.880
7590 7591 7595 1 110.254 292.880
7591 7590 7596 1 116.799 292.880
7591 7592 7593 1 108.806 460.240
7592 7591 7594 1 107.865 292.880
7592 7591 7595 1 107.980 292.880
7594 7591 7595 1 108.297 276.144
7598 7599 7600 1 115.974 669.440
7599 7600 7601 1 122.748 418.400
7599 7600 7604 1 117.141 292.880
7600 7601 7602 1 109.799 292.880
7600 7601 7603 1 110.394 292.880
7601 7600 7604 1 116.431 292.880
7602 7601 7603 1 108.377 276.144
7606 7607 7608 1 116.182 669.440
7607 7608 7609 1 123.014 418.400
7607 7608 7612 1 117.665 292.880
7608 7609 7610 1 110.304 292.880
7608 7609 7611 1 109.909 292.880
7609 7608 7612 1 116.950 292.880
7610 7609 7611 1 108.464 276.144
7614 7615 7616 1 118.794 669.440
7615 7616 7617 1 123.066 418.400
7615 7616 7620 1 117.297 292.880
7616 7617 7618 1 109.745 292.880
7616 7617 7619 1 110.254 292.880
7617 7616 7620 1 116.799 292.880
7618 7617 7619 1 108.297 276.144
7622 7623 7624 1 115.974 669.440
7623 7624 7625 1 122.748 418.400
7623 7624 7630 1 117.141 292.880
7624 7625 7626 1 112.203 669.440
7624 7625 7628 1 109.799 292.880
7624 7625 7629 1 110.394 292.880
7625 7624 7630 1 116.431 292.880
7625 7626 7627 1 107.831 460.240
7626 7625 7628 1 107.812 292.880
7626 7625 7629 1 108.141 292.880
7628 7625 7629 1 108.377 276.144
7632 7633 7634 1 116.182 669.440
7633 7634 7635 1 123.014 418.400
7633 7634 7639 1 117.665 292.880
7634 7635 7636 1 112.146 669.440
7634 7635 7637 1 110.304 292.880
7634 7635 7638 1 109.909 292.880
7635 7634 7639 1 116.950 292.880
7636 7635 7637 1 108.147 292.880
7636 7635 7638 1 107.761 292.880
7637 7635 7638 1 108.464 276.144
7641 7642 7643 1 118.794 669.440
7642 7643 7644 1 123.066 418.400
7642 7643 7648 1 117.297 292.880
7643 7644 7645 1 112.574 669.440
7643 7644 7646 1 109.745 292.880
7643 7644 7647 1 110.254 292.880
7644 7643 7648 1 116.799 292.880
7645 7644 7646 1 107.865 292.880
7645 7644 7647 1 107.980 292.880
7646 7644 7647 1 108.297 276.144
7650 7651 7652 1 115.974 669.440
7651 7652 7653 1 122.748 418.400
7651 7652 7656 1 117.141 292.880
7652 7653 7654 1 109.799 292.880
7652 7653 7655 1 110.394 292.880
7653 7652 7656 1 116.431 292.880
7654 7653 7655 1 108.377 276.144
7658 7659 7660 1 116.182 669.440
7659 7660 7661 1 123.014 418.400
7659 7660 7664 1 117.665 292.880
7660 7661 7662 1 110.304 292.880
7660 7661 7663 1 109.909 292.880
7661 7660 7664 1 116.950 292.880
7662 7661 7663 1 108.464 276.144
7666 7667 7668 1 118.794 669.440
7667 7668 7669 1 123.066 418.400
7667 7668 7673 1 117.297 292.880
7668 7669 7670 1 112.574 669.440
7668 7669 7671 1 109.745 292.880
7668 7669 7672 1 110.254 292.880
7669 7668 7673 1 116.799 292.880
7670 7669 7671 1 107.865 292.880
7670 7669 7672 1 107.980 292.880
7671 7669 7672 1 108.297 276.144
7675 7676 7677 1 115.974 669.440
7676 7677 7678 1 122.748 418.400
7676 7677 7681 1 117.141 292.880
7677 7678 7679 1 109.799 292.880
7677 7678 7680 1 110.394 292.880
7678 7677 7681 1 116.431 292.880
7679 7678 7680 1 108.377 276.144
7683 7684 7685 1 116.182 669.440
7684 7685 7686 1 123.014 418.400
7684 7685 7689 1 117.665 292.880
7685 7686 7687 1 110.304 292.880
7685 7686 7688 1 109.909 292.880
7686 7685 7689 1 116.950 292.880
7687 7686 7688 1 108.464 276.144
7691 7692 7693 1 118.794 669.440
7692 7693 7694 1 123.066 418.400
7692 7693 7698 1 117.297 292.880
7693 7694 7695 1 112.574 669.440
7693 7694 7696 1 109.745 292.880
7693 7694 7697 1 110.254 292.880
7694 7693 7698 1 116.799 292.880
7695 7694 7696 1 107.865 292.880
7695 7694 7697 1 107.980 292.880
7696 7694 7697 1 108.297 276.144
7700 7701 7702 1 115.974 669.440
7701 7702 7703 1 122.748 418.400
7701 7702 7707 1 117.141 292.880
7702 7703 7704 1 112.203 669.440
7702 7703 7705 1 109.799 292.880
7702 7703 7706 1 110.394 292.880
7703 7702 7707 1 116.431 292.880
7704 7703 7705 1 107.812 292.880
7704 7703 7706 1 108.141 292.880
7705 7703 7706 1 108.377 276.144
7709 7710 7711 1 116.182 669.440
7710 7711 7712 1 123.014 418.400
7710 7711 7716 1 117.665 292.880
7711 7712 7713 1 112.146 669.440
7711 7712 7714 1 110.304 292.880
7711 7712 7715 1 109.909 292.880
7712 7711 7716 1 116.950 292.880
7713 7712 7714 1 108.147 292.880
7713 7712 7715 1 107.761 292.880
7714 7712 7715 1 108.464 276.144
7718 7719 7720 1 118.794 669.440
7719 7720 7721 1 123.066 418.400
7719 7720 7724 1 117.297 292.880
7720 7721 7722 1 109.745 292.880
7720 7721 7723 1 110.254 292.880
7721 7720 7724 1 116.799 292.880
7722 7721 7723 1 108.297 276.144
7726 7727 7728 1 115.974 669.440
7727 7728 7729 1 122.748 418.400
7727 7728 7733 1 117.141 292.880
7728 7729 7730 1 112.203 669.440
7728 7729 7731 1 109.799 292.880
7728 7729 7732 1 110.394 292.880
7729 7728 7733 1 116.431 292.880
7730 7729 7731 1 107.812 292.880
7730 7729 7732 1 108.141 292.880
7731 7729 7732 1 108.377 276.144
7735 7736 7737 1 116.182 669.440
7736 7737 7738 1 123.014 418.400
7736 7737 7742 1 117.665 292.880
7737 7738 7739 1 112.146 669.440
7737 7738 7740 1 110.304 292.880
7737 7738 7741 1 109.909 292.880
7738 7737 7742 1 116.950 292.880
7739 7738 7740 1 108.147 292.880
7739 7738 7741 1 107.761 292.880
7740 7738 7741 1 108.464 276.144
7744 7745 7746 1 118.794 669.440
7745 7746 7747 1 123.066 418.400
7745 7746 7750 1 117.297 292.880
7746 7747 7748 1 109.745 292.880
7746 7747 7749 1 110.254 292.880
7747 7746 7750 1 116.799 292.880
7748 7747 7749 1 108.297 276.144
7752 7753 7754 1 115.974 669.440
7753 7754 7755 1 122.748 418.400
7753 7754 7758 1 117.141 292.880
7754 7755 7756 1 109.799 292.880
7754 7755 7757 1 110.394 292.880
7755 7754 7758 1 116.431 292.880
7756 7755 7757 1 108.377 276.144
7760 7761 7762 1 116.182 669.440
7761 7762 7763 1 123.014 418.400
7761 7762 7767 1 117.665 292.880
7762 7763 7764 1 112.146 669.440
7762 7763 7765 1 110.304 292.880
7762 7763 7766 1 109.909 292.880
7763 7762 7767 1 116.950 292.880
7764 7763 7765 1 108.147 292.880
7764 7763 7766 1 107.761 292.880
7765 7763 7766 1 108.464 276.144
7769 7770 7771 1 118.794 669.440
7770 7771 7772 1 123.066 418.400
7770 7771 7775 1 117.297 292.880
7771 7772 7773 1 109.745 292.880
7771 7772 7774 1 110.254 292.880
7772 7771 7775 1 116.799 292.880
7773 7772 7774 1 108.297 276.144
7777 7778 7779 1 115.974 669.440
7778 7779 7780 1 122.748 418.400
7778 7779 7785 1 117.141 292.880
7779 7780 7781 1 112.203 669.440
7779 7780 7783 1 109.799 292.880
7779 7780 7784 1 110.394 292.880
7780 7779 7785 1 116.431 292.880
7780 7781 7782 1 107.831 460.240
7781 7780 7783 1 107.812 292.880
7781 7780 7784 1 108.141 292.880
7783 7780 7784 1 108.377 276.144
7787 7788 7789 1 116.182 669.440
7788 7789 7790 1 123.014 418.400
7788 7789 7794 1 117.665 292.880
7789 7790 7791 1 112.146 669.440
7789 7790 7792 1 110.304 292.880
7789 7790 7793 1 109.909 292.880
7790 7789 7794 1 116.950 292.880
7791 7790 7792 1 108.147 292.880
7791 7790 7793 1 107.761 292.880
7792 7790 7793 1 108.464 276.144
7796 7797 7798 1 118.794 669.440
7797 7798 7799 1 123.066 418.400
7797 7798 7802 1 117.297 292.880
7798 7799 7800 1 109.745 292.880
7798 7799 7801 1 110.254 292.880
7799 7798 7802 1 116.799 292.880
7800 7799 7801 1 108.297 276.144
7804 7805 7806 1 115.974 669.440
7805 7806 7807 1 122.748 418.400
7805 7806 7810 1 117.141 292.880
7806 7807 7808 1 109.799 292.880
7806 7807 7809 1 110.394 292.880
7807 7806 7810 1 116.431 292.880
7808 7807 7809 1 108.377 276.144
7812 7813 7814 1 116.182 669.440
7813 7814 7815 1 123.014 418.400
7813 7814 7819 1 117.665 292.880
7814 7815 7816 1 112.146 669.440
7814 7815 7817 1 110.304 292.880
7814 7815 7818 1 109.909 292.880
7815 7814 7819 1 116.950 292.880
7816 7815 7817 1 108.147 292.880
7816 7815 7818 1 107.761 292.880
7817 7815 7818 1 108.464 276.144
7821 7822 7823 1 118.794 669.440
7822 7823 7824 1 123.066 418.400
7822 7823 7827 1 117.297 292.880
7823 7824 7825 1 109.745 292.880
7823 7824 7826 1 110.254 292.880
7824 7823 7827 1 116.799 292.880
7825 7824 7826 1 108.297 276.144
7829 7830 7831 1 115.974 669.440
7830 7831 7832 1 122.748 418.400
7830 7831 7835 1 117.141 292.880
7831 7832 7833 1 109.799 292.880
7831 7832 7834 1 110.394 292.880
7832 7831 7835 1 116.431 292.880
7833 7832 7834 1 108.377 276.144
7837 7838 7839 1 116.182 669.440
7838 7839 7840 1 123.014 418.400
7838 7839 7843 1 117.665 292.880
7839 7840 7841 1 110.304 292.880
7839 7840 7842 1 109.909 292.880
7840 7839 7843 1 116.950 292.880
7841 7840 7842 1 108.464 276.144
7845 7846 7847 1 118.794 669.440
7846 7847 7848 1 123.066 418.400
7846 7847 7852 1 117.297 292.880
7847 7848 7849 1 112.574 669.440
7847 7848 7850 1 109.745 292.880
7847 7848 7851 1 110.254 292.880
7848 7847 7852 1 116.799 292.880
7849 7848 7850 1 107.865 292.880
7849 7848 7851 1 107.980 292.880
7850 7848 7851 1 108.297 276.144
7854 7855 7856 1 115.974 669.440
7855 7856 7857 1 122.748 418.400
7855 7856 7861 1 117.141 292.880
7856 7857 7858 1 112.203 669.440
7856 7857 7859 1 109.799 292.880
7856 7857 7860 1 110.394 292.880
7857 7856 7861 1 116.431 292.880
7858 7857 7859 1 107.812 292.880
7858 7857 7860 1 108.141 292.880
7859 7857 7860 1 108.377 276.144
7863 7864 7865 1 116.182 669.440
7864 7865 7866 1 123.014 418.400
7864 7865 7869 1 117.665 292.880
7865 7866 7867 1 110.304 292.880
7865 7866 7868 1 109.909 292.880
7866 7865 7869 1 116.950 292.880
7867 7866 7868 1 108.464 276.144
7871 7872 7873 1 118.794 669.440
7872 7873 7874 1 123.066 418.400
7872 7873 7877 1 117.297 292.880
7873 7874 7875 1 109.745 292.880
7873 7874 7876 1 110.254 292.880
7874 7873 7877 1 116.799 292.880
7875 7874 7876 1 108.297 276.144
7879 7880 7881 1 115.974 669.440
7880 7881 7882 1 122.748 418.400
7880 7881 7885 1 117.141 292.880
7881 7882 7883 1 109.799 292.880
7881 7882 7884 1 110.394 292.880
7882 7881 7885 1 116.431 292.880
7883 7882 7884 1 108.377 276.144
7887 7888 7889 1 116.182 669.440
7888 7889 7890 1 123.014 418.400
7888 7889 7893 1 117.665 292.880
7889 7890 7891 1 110.304 292.880
7889 7890 7892 1 109.909 292.880
7890 7889 7893 1 116.950 292.880
7891 7890 7892 1 108.464 276.144
7895 7896 7897 1 118.794 669.440
7896 7897 7898 1 123.066 418.400
7896 7897 7902 1 117.297 292.880
7897 7898 7899 1 112.574 669.440
7897 7898 7900 1 109.745 292.880
7897 7898 7901 1 110.254 292.880
7898 7897 7902 1 116.799 292.880
7899 7898 7900 1 107.865 292.880
7899 7898 7901 1 107.980 292.880
7900 7898 7901 1 108.297 276.144
7904 7905 7906 1 115.974 669.440
7905 7906 7907 1 122.748 418.400
7905 7906 7910 1 117.141 292.880
7906 7907 7908 1 109.799 292.880
7906 7907 7909 1 110.394 292.880
7907 7906 7910 1 116.431 292.880
7908 7907 7909 1 108.377 276.144
7912 7913 7914 1 116.182 669.440
7913 7914 7915 1 123.014 418.400
7913 7914 7919 1 117.665 292.880
7914 7915 7916 1 112.146 669.440
7914 7915 7917 1 110.304 292.880
7914 7915 7918 1 109.909 292.880
7915 7914 7919 1 116.950 292.880
7916 7915 7917 1 108.147 292.880
7916 7915 7918 1 107.761 292.880
7917 7915 7918 1 108.464 276.144
7921 7922 7923 1 118.794 669.440
7922 7923 7924 1 123.066 418.400
7922 7923 7928 1 117.297 292.880
7923 7924 7925 1 112.574 669.440
7923 7924 7926 1 109.745 292.880
7923 7924 7927 1 110.254 292.880
7924 7923 7928 1 116.799 292.880
7925 7924 7926 1 107.865 292.880
7925 7924 7927 1 107.980 292.880
7926 7924 7927 1 108.297 276.144
7930 7931 7932 1 115.974 669.440
7931 7932 7933 1 122.748 418.400
7931 7932 7936 1 117.141 292.880
7932 7933 7934 1 109.799 292.880
7932 7933 7935 1 110.394 292.880
7933 7932 7936 1 116.431 292.880
7934 7933 7935 1 108.377 276.144
7938 7939 7940 1 116.182 669.440
7939 7940 7941 1 123.014 418.400
7939 7940 7946 1 117.665 292.880
7940 7941 7942 1 112.146 669.440
7940 7941 7944 1 110.304 292.880
7940 7941 7945 1 109.909 292.880
7941 7940 7946 1 116.950 292.880
7941 7942 7943 1 107.577 460.240
7942 7941 7944 1 108.147 292.880
7942 7941 7945 1 107.761 292.880
7944 7941 7945 1 108.464 276.144
7948 7949 7950 1 118.794 669.440
7949 7950 7951 1 123.066 418.400
7949 7950 7954 1 117.297 292.880
7950 7951 7952 1 109.745 292.880
7950 7951 7953 1 110.254 292.880
7951 7950 7954 1 116.799 292.880
7952 7951 7953 1 108.297 276.144
7956 7957 7958 1 115.974 669.440
7957 7958 7959 1 122.748 418.400
7957 7958 7963 1 117.141 292.880
7958 7959 7960 1 112.203 669.440
7958 7959 7961 1 109.799 292.880
7958 7959 7962 1 110.394 292.880
7959 7958 7963 1 116.431 292.880
7960 7959 7961 1 107.812 292.880
7960 7959 7962 1 108.141 292.880
7961 7959 7962 1 108.377 276.144
7965 7966 7967 1 116.182 669.440
7966 7967 7968 1 123.014 418.400
7966 7967 7973 1 117.665 292.880
7967 7968 7969 1 112.146 669.440
7967 7968 7971 1 110.304 292.880
7967 7968 7972 1 109.909 292.880
7968 7967 7973 1 116.950 292.880
7968 7969 7970 1 107.577 460.240
7969 7968 7971 1 108.147 292.880
7969 7968 7972 1 107.761 292.880
7971 7968 7972 1 108.464 276.144
7975 7976 7977 1 118.794 669.440
7976 7977 7978 1 123.066 418.400
7976 7977 7982 1 117.297 292.880
7977 7978 7979 1 112.574 669.440
7977 7978 7980 1 109.745 292.880
7977 7978 7981 1 110.254 292.880
7978 7977 7982 1 116.799 292.880
7979 7978 7980 1 107.865 292.880
7979 7978 7981 1 107.980 292.880
7980 7978 7981 1 108.297 276.144
7984 7985 7986 1 115.974 669.440
7985 7986 7987 1 122.748 418.400
7985 7986 7992 1 117.141 292.880
7986 7987 7988 1 112.203 669.440
7986 7987 7990 1 109.799 292.880
7986 7987 7991 1 110.394 292.880
7987 7986 7992 1 116.431 292.880
7987 7988 7989 1 107.831 460.240
7988 7987 7990 1 107.812 292.880
7988 7987 7991 1 108.141 292.880
7990 7987 7991 1 108.377 276.144
7994 7995 7996 1 116.182 669.440
7995 7996 7997 1 123.014 418.400
7995 7996 8001 1 117.665 292.880
7996 7997 7998 1 112.146 669.440
7996 7997 7999 1 110.304 292.880
7996 7997 8000 1 109.909 292.880
7997 7996 8001 1 116.950 292.880
7998 7997 7999 1 108.147 292.880
7998 7997 8000 1 107.761 292.880
7999 7997 8000 1 108.464 276.144
8003 8004 8005 1 118.794 669.440
8004 8005 8006 1 123.066 418.400
8004 8005 8009 1 117.297 292.880
8005 8006 8007 1 109.745 292.880
8005 8006 8008 1 110.254 292.880
8006 8005 8009 1 116.799 292.880
8007 8006 8008 1 108.297 276.144
8011 8012 8013 1 115.974 669.440
8012 8013 8014 1 122.748 418.400
8012 8013 8018 1 117.141 292.880
8013 8014 8015 1 112.203 669.440
8013 8014 8016 1 109.799 292.880
8013 8014 8017 1 110.394 292.880
8014 8013 8018 1 116.431 292.880
8015 8014 8016 1 107.812 292.880
8015 8014 8017 1 108.141 292.880
8016 8014 8017 1 108.377 276.144
8020 8021 8022 1 116.182 669.440
8021 8022 8023 1 123.014 418.400
8021 8022 8027 1 117.665 292.880
8022 8023 8024 1 112.146 669.440
8022 8023 8025 1 110.304 292.880
8022 8023 8026 1 109.909 292.880
8023 8022 8027 1 116.950 292.880
8024 8023 8025 1 108.147 292.880
8024 8023 8026 1 107.761 292.880
8025 8023 8026 1 108.464 276.144
8029 8030 8031 1 118.794 669.440
8030 8031 8032 1 123.066 418.400
8030 8031 8036 1 117.297 292.880
8031 8032 8033 1 112.574 669.440
8031 8032 8034 1 109.745 292.880
8031 8032 8035 1 110.254 292.880
8032 8031 8036 1 116.799 292.880
8033 8032 8034 1 107.865 292.880
8033 8032 8035 1 107.980 292.880
8034 8032 8035 1 108.297 276.144
8038 8039 8040 1 115.974 669.440
8039 8040 8041 1 122.748 418.400
8039 8040 8045 1 117.141 292.880
8040 8041 8042 1 112.203 669.440
8040 8041 8043 1 109.799 292.880
8040 8041 8044 1 110.394 292.880
8041 8040 8045 1 116.431 292.880
8042 8041 8043 1 107.812 292.880
8042 8041 8044 1 108.141 292.880
8043 8041 8044 1 108.377 276.144
8047 8048 8049 1 116.182 669.440
8048 8049 8050 1 123.014 418.400
8048 8049 8053 1 117.665 292.880
8049 8050 8051 1 110.304 292.880
8049 8050 8052 1 109.909 292.880
8050 8049 8053 1 116.950 292.880
8051 8050 8052 1 108.464 276.144
8055 8056 8057 1 118.794 669.440
8056 8057 8058 1 123.066 418.400
8056 8057 8061 1 117.297 292.880
8057 8058 8059 1 109.745 292.880
8057 8058 8060 1 110.254 292.880
8058 8057 8061 1 116.799 292.880
8059 8058 8060 1 108.297 276.144
8063 8064 8065 1 115.974 669.440
8064 8065 8066 1 122.748 418.400
8064 8065 8069 1 117.141 292.880
8065 8066 8067 1 109.799 292.880
8065 8066 8068 1 110.394 292.880
8066 8065 8069 1 116.431 292.880
8067 8066 8068 1 108.377 276.144
8071 8072 8073 1 116.182 669.440
8072 8073 8074 1 123.014 418.400
8072 8073 8078 1 117.665 292.880
8073 8074 8075 1 112.146 669.440
8073 8074 8076 1 110.304 292.880
8073 8074 8077 1 109.909 292.880
8074 8073 8078 1 116.950 292.880
8075 8074 8076 1 108.147 292.880
8075 8074 8077 1 107.761 292.880
8076 8074 8077 1 108.464 276.144
8080 8081 8082 1 118.794 669.440
8081 8082 8083 1 123.066 418.400
8081 8082 8086 1 117.297 292.880
8082 8083 8084 1 109.745 292.880
8082 8083 8085 1 110.254 292.880
8083 8082 8086 1 116.799 292.880
8084 8083 8085 1 108.297 276.144
8088 8089 8090 1 115.974 669.440
8089 8090 8091 1 122.748 418.400
8089 8090 8094 1 117.141 292.880
8090 8091 8092 1 109.799 292.880
8090 8091 8093 1 110.394 292.880
8091 8090 8094 1 116.431 292.880
8092 8091 8093 1 108.377 276.144
8096 8097 8098 1 116.182 669.440
8097 8098 8099 1 123.014 418.400
8097 8098 8103 1 117.665 292.880
8098 8099 8100 1 112.146 669.440
8098 8099 8101 1 110.304 292.880
8098 8099 8102 1 109.909 292.880
8099 8098 8103 1 116.950 292.880
8100 8099 8101 1 108.147 292.880
8100 8099 8102 1 107.761 292.880
8101 8099 8102 1 108.464 276.144
8105 8106 8107 1 118.794 669.440
8106 8107 8108 1 123.066 418.400
8106 8107 8112 1 117.297 292.880
8107 8108 8109 1 112.574 669.440
8107 8108 8110 1 109.745 292.880
8107 8108 8111 1 110.254 292.880
8108 8107 8112 1 116.799 292.880
8109 8108 8110 1 107.865 292.880
8109 8108 8111 1 107.980 292.880
8110 8108 8111 1 108.297 276.144
8114 8115 8116 1 115.974 669.440
8115 8116 8117 1 122.748 418.400
8115 8116 8121 1 117.141 292.880
8116 8117 8118 1 112.203 669.440
8116 8117 8119 1 109.799 292.880
8116 8117 8120 1 110.394 292.880
8117 8116 8121 1 116.431 292.880
8118 8117 8119 1 107.812 292.880
8118 8117 8120 1 108.141 292.880
8119 8117 8120 1 108.377 276.144
8123 8124 8125 1 116.182 669.440
8124 8125 8126 1 123.014 418.400
8124 8125 8131 1 117.665 292.880
8125 8126 8127 1 112.146 669.440
8125 8126 8129 1 110.304 292.880
8125 8126 8130 1 109.909 292.880
8126 8125 8131 1 116.950 292.880
8126 8127 8128 1 107.577 460.240
8127 8126 8129 1 108.147 292.880
8127 8126 8130 1 107.761 292.880
8129 8126 8130 1 108.464 276.144
8133 8134 8135 1 118.794 669.440
8134 8135 8136 1 123.066 418.400
8134 8135 8139 1 117.297 292.880
8135 8136 8137 1 109.745 292.880
8135 8136 8138 1 110.254 292.880
8136 8135 8139 1 116.799 292.880
8137 8136 8138 1 108.297 276.144
8141 8142 8143 1 115.974 669.440
8142 8143 8144 1 122.748 418.400
8142 8143 8147 1 117.141 292.880
8143 8144 8145 1 109.799 292.880
8143 8144 8146 1 110.394 292.880
8144 8143 8147 1 116.431 292.880
8145 8144 8146 1 108.377 276.144
8149 8150 8151 1 116.182 669.440
8150 8151 8152 1 123.014 418.400
8150 8151 8156 1 117.665 292.880
8151 8152 8153 1 112.146 669.440
8151 8152 8154 1 110.304 292.880
8151 8152 8155 1 109.909 292.880
8152 8151 8156 1 116.950 292.880
8153 8152 8154 1 108.147 292.880
8153 8152 8155 1 107.761 292.880
8154 8152 8155 1 108.464 276.144
8158 8159 8160 1 118.794 669.440
8159 8160 8161 1 123.066 418.400
8159 8160 8164 1 117.297 292.880
8160 8161 8162 1 109.745 292.880
8160 8161 8163 1 110.254 292.880
8161 8160 8164 1 116.799 292.880
8162 8161 8163 1 108.297 276.144
8166 8167 8168 1 115.974 669.440
8167 8168 8169 1 122.748 418.400
8167 8168 8172 1 117.141 292.880
8168 8169 8170 1 109.799 292.880
8168 8169 8171 1 110.394 292.880
8169 8168 8172 1 116.431 292.880
8170 8169 8171 1 108.377 276.144
8174 8175 8176 1 116.182 669.440
8175 8176 8177 1 123.014 418.400
8175 8176 8180 1 117.665 292.880
8176 8177 8178 1 110.304 292.880
8176 8177 8179 1 109.909 292.880
8177 8176 8180 1 116.950 292.880
8178 8177 8179 1 108.464 276.144
8182 8183 8184 1 118.794 669.440
8183 8184 8185 1 123.066 418.400
8183 8184 8188 1 117.297 292.880
8184 8185 8186 1 109.745 292.880
8184 8185 8187 1 110.254 292.880
8185 8184 8188 1 116.799 292.880
8186 8185 8187 1 108.297 276.144
8190 8191 8192 1 115.974 669.440
8191 8192 8193 1 122.748 418.400
8191 8192 8196 1 117.141 292.880
8192 8193 8194 1 109.799 292.880
8192 8193 8195 1 110.394 292.880
8193 8192 8196 1 116.431 292.880
8194 8193 8195 1 108.377 276.144
8198 8199 8200 1 116.182 669.440
8199 8200 8201 1 123.014 418.400
8199 8200 8205 1 117.665 292.880
8200 8201 8202 1 112.146 669.440
8200 8201 8203 1 110.304 292.880
8200 8201 8204 1 109.909 292.880
8201 8200 8205 1 116.950 292.880
8202 8201 8203 1 108.147 292.880
8202 8201 8204 1 107.761 292.880
8203 8201 8204 1 108.464 276.144
8207 8208 8209 1 118.794 669.440
8208 8209 8210 1 123.066 418.400
8208 8209 8213 1 117.297 292.880
8209 8210 8211 1 109.745 292.880
8209 8210 8212 1 110.254 292.880
8210 8209 8213 1 116.799 292.880
8211 8210 8212 1 108.297 276.144
8215 8216 8217 1 115.974 669.440
8216 8217 8218 1 122.748 418.400
8216 8217 8222 1 117.141 292.880
8217 8218 8219 1 112.203 669.440
8217 8218 8220 1 109.799 292.880
8217 8218 8221 1 110.394 292.880
8218 8217 8222 1 116.431 292.880
8219 8218 8220 1 107.812 292.880
8219 8218 8221 1 108.141 292.880
8220 8218 8221 1 108.377 276.144
8224 8225 8226 1 116.182 669.440
8225 8226 8227 1 123.014 418.400
8225 8226 8231 1 117.665 292.880
8226 8227 8228 1 112.146 669.440
8226 8227 8229 1 110.304 292.880
8226 8227 8230 1 109.909 292.880
8227 8226 8231 1 116.950 292.880
8228 8227 8229 1 108.147 292.880
8228 8227 8230 1 107.761 292.880
8229 8227 8230 1 108.464 276.144
8233 8234 8235 1 118.794 669.440
8234 8235 8236 1 123.066 418.400
8234 8235 8240 1 117.297 292.880
8235 8236 8237 1 112.574 669.440
8235 8236 8238 1 109.745 292.880
8235 8236 8239 1 110.254 292.880
8236 8235 8240 1 116.799 292.880
8237 8236 8238 1 107.865 292.880
8237 8236 8239 1 107.980 292.880
8238 8236 8239 1 108.297 276.144
8242 8243 8244 1 115.974 669.440
8243 8244 8245 1 122.748 418.400
8243 8244 8249 1 117.141 292.880
8244 8245 8246 1 112.203 669.440
8244 8245 8247 1 109.799 292.880
8244 8245 8248 1 110.394 292.880
8245 8244 8249 1 116.431 292.880
8246 8245 8247 1 107.812 292.880
8246 8245 8248 1 108.141 292.880
8247 8245 8248 1 108.377 276.144
8251 8252 8253 1 116.182 669.440
8252 8253 8254 1 123.014 418.400
8252 8253 8257 1 117.665 292.880
8253 8254 8255 1 110.304 292.880
8253 8254 8256 1 109.909 292.880
8254 8253 8257 1 116.950 292.880
8255 8254 8256 1 108.464 276.144
8259 8260 8261 1 118.794 669.440
8260 8261 8262 1 123.066 418.400
8260 8261 8265 1 117.297 292.880
8261 8262 8263 1 109.745 292.880
8261 8262 8264 1 110.254 292.880
8262 8261 8265 1 116.799 292.880
8263 8262 8264 1 108.297 276.144
8267 8268 8269 1 115.974 669.440
8268 8269 8270 1 122.748 418.400
8268 8269 8274 1 117.141 292.880
8269 8270 8271 1 112.203 669.440
8269 8270 8272 1 109.799 292.880
8269 8270 8273 1 110.394 292.880
8270 8269 8274 1 116.431 292.880
8271 8270 8272 1 107.812 292.880
8271 8270 8273 1 108.141 292.880
8272 8270 8273 1 108.377 276.144
8276 8277 8278 1 116.182 669.440
8277 8278 8279 1 123.014 418.400
8277 8278 8283 1 117.665 292.880
8278 8279 8280 1 112.146 669.440
8278 8279 8281 1 110.304 292.880
8278 8279 8282 1 109.909 292.880
8279 8278 8283 1 116.950 292.880
8280 8279 8281 1 108.147 292.880
8280 8279 8282 1 107.761 292.880
8281 8279 8282 1 108.464 276.144
8285 8286 8287 1 118.794 669.440
8286 8287 8288 1 123.066 418.400
8286 8287 8291 1 117.297 292.880
8287 8288 8289 1 109.745 292.880
8287 8288 8290 1 110.254 292.880
8288 8287 8291 1 116.799 292.880
8289 8288 8290 1 108.297 276.144
8293 8294 8295 1 115.974 669.440
8294 8295 8296 1 122.748 418.400
8294 8295 8299 1 117.141 292.880
8295 8296 8297 1 109.799 292.880
8295 8296 8298 1 110.394 292.880
8296 8295 8299 1 116.431 292.880
8297 8296 8298 1 108.377 276.144
8301 8302 8303 1 116.182 669.440
8302 8303 8304 1 123.014 418.400
8302 8303 8309 1 117.665 292.880
8303 8304 8305 1 112.146 669.440
8303 8304 8307 1 110.304 292.880
8303 8304 8308 1 109.909 292.880
8304 8303 8309 1 116.950 292.880
8304 8305 8306 1 107.577 460.240
8305 8304 8307 1 108.147 292.880
8305 8304 8308 1 107.761 292.880
8307 8304 8308 1 108.464 276.144
8311 8312 8313 1 118.794 669.440
8312 8313 8314 1 123.066 418.400
8312 8313 8317 1 117.297 292.880
8313 8314 8315 1 109.745 292.880
8313 8314 8316 1 110.254 292.880
8314 8313 8317 1 116.799 292.880
8315 8314 8316 1 108.297 276.144
8319 8320 8321 1 115.974 669.440
8320 8321 8322 1 122.748 418.400
8320 8321 8325 1 117.141 292.880
8321 8322 8323 1 109.799 292.880
8321 8322 8324 1 110.394 292.880
8322 8321 8325 1 116.431 292.880
8323 8322 8324 1 108.377 276.144
8327 8328 8329 1 116.182 669.440
8328 8329 8330 1 123.014 418.400
8328 8329 8333 1 117.665 292.880
8329 8330 8331 1 110.304 292.880
8329 8330 8332 1 109.909 292.880
8330 8329 8333 1 116.950 292.880
8331 8330 8332 1 108.464 276.144
8335 8336 8337 1 118.794 669.440
8336 8337 8338 1 123.066 418.400
8336 8337 8341 1 117.297 292.880
8337 8338 8339 1 109.745 292.880
8337 8338 8340 1 110.254 292.880
8338 8337 8341 1 116.799 292.880
8339 8338 8340 1 108.297 276.144
8343 8344 8345 1 115.974 669.440
8344 8345 8346 1 122.748 418.400
8344 8345 8349 1 117.141 292.880
8345 8346 8347 1 109.799 292.880
8345 8346 8348 1 110.394 292.880
8346 8345 8349 1 116.431 292.880
8347 8346 8348 1 108.377 276.144
8351 8352 8353 1 116.182 669.440
8352 8353 8354 1 123.014 418.400
8352 8353 8357 1 117.665 292.880
8353 8354 8355 1 110.304 292.880
8353 8354 8356 1 109.909 292.880
8354 8353 8357 1 116.950 292.880
8355 8354 8356 1 108.464 276.144
8359 8360 8361 1 118.794 669.440
8360 8361 8362 1 123.066 418.400
8360 8361 8365 1 117.297 292.880
8361 8362 8363 1 109.745 292.880
8361 8362 8364 1 110.254 292.880
8362 8361 8365 1 116.799 292.880
8363 8362 8364 1 108.297 276.144
8367 8368 8369 1 115.974 669.440
8368 8369 8370 1 122.748 418.400
8368 8369 8374 1 117.141 292.880
8369 8370 8371 1 112.203 669.440
8369 8370 8372 1 109.799 292.880
8369 8370 8373 1 110.394 292.880
8370 8369 8374 1 116.431 292.880
8371 8370 8372 1 107.812 292.880
8371 8370 8373 1 108.141 292.880
8372 8370 8373 1 108.377 276.144
8376 8377 8378 1 116.182 669.440
8377 8378 8379 1 123.014 418.400
8377 8378 8383 1 117.665 292.880
8378 8379 8380 1 112.146 669.440
8378 8379 8381 1 110.304 292.880
8378 8379 8382 1 109.909 292.880
8379 8378 8383 1 116.950 292.880
8380 8379 8381 1 108.147 292.880
8380 8379 8382 1 107.761 292.880
8381 8379 8382 1 108.464 276.144
8385 8386 8387 1 118.794 669.440
8386 8387 8388 1 123.066 418.400
8386 8387 8391 1 117.297 292.880
8387 8388 8389 1 109.745 292.880
8387 8388 8390 1 110.254 292.880
8388 8387 8391 1 116.799 292.880
8389 8388 8390 1 108.297 276.144
8393 8394 8395 1 115.974 669.440
8394 8395 8396 1 122.748 418.400
8394 8395 8399 1 117.141 292.880
8395 8396 8397 1 109.799 292.880
8395 8396 8398 1 110.394 292.880
8396 8395 8399 1 116.431 292.880
8397 8396 8398 1 108.377 276.144
8401 8402 8403 1 116.182 669.440
8402 8403 8404 1 123.014 418.400
8402 8403 8408 1 117.665 292.880
8403 8404 8405 1 112.146 669.440
8403 8404 8406 1 110.304 292.880
8403 8404 8407 1 109.909 292.880
8404 8403 8408 1 116.950 292.880
8405 8404 8406 1 108.147 292.880
8405 8404 8407 1 107.761 292.880
8406 8404 8407 1 108.464 276.144
8410 8411 8412 1 118.794 669.440
8411 8412 8413 1 123.066 418.400
8411 8412 8417 1 117.297 292.880
8412 8413 8414 1 112.574 669.440
8412 8413 8415 1 109.745 292.880
8412 8413 8416 1 110.254 292.880
8413 8412 8417 1 116.799 292.880
8414 8413 8415 1 107.865 292.880
8414 8413 8416 1 107.980 292.880
8415 8413 8416 1 108.297 276.144
8419 8420 8421 1 115.974 669.440
8420 8421 8422 1 122.748 418.400
8420 8421 8426 1 117.141 292.880
8421 8422 8423 1 112.203 669.440
8421 8422 8424 1 109.799 292.880
8421 8422 8425 1 110.394 292.880
8422 8421 8426 1 116.431 292.880
8423 8422 8424 1 107.812 292.880
8423 8422 8425 1 108.141 292.880
8424 8422 8425 1 108.377 276.144
8428 8429 8430 1 116.182 669.440
8429 8430 8431 1 123.014 418.400
8429 8430 8434 1 117.665 292.880
8430 8431 8432 1 110.304 292.880
8430 8431 8433 1 109.909 292.880
8431 8430 8434 1 116.950 292.880
8432 8431 8433 1 108.464 276.144
8436 8437 8438 1 118.794 669.440
8437 8438 8439 1 123.066 418.400
8437 8438 8442 1 117.297 292.880
8438 8439 8440 1 109.745 292.880
8438 8439 8441 1 110.254 292.880
8439 8438 8442 1 116.799 292.880
8440 8439 8441 1 108.297 276.144
8444 8445 8446 1 115.974 669.440
8445 8446 8447 1 122.748 418.400
8445 8446 8452 1 117.141 292.880
8446 8447 8448 1 112.203 669.440
8446 8447 8450 1 109.799 292.880
8446 8447 8451 1 110.394 292.880
8447 8446 8452 1 116.431 292.880
8447 8448 8449 1 107.831 460.240
8448 8447 8450 1 107.812 292.880
8448 8447 8451 1 108.141 292.880
8450 8447 8451 1 108.377 276.144
8454 8455 8456 1 116.182 669.440
8455 8456 8457 1 123.014 418.400
8455 8456 8460 1 117.665 292.880
8456 8457 8458 1 110.304 292.880
8456 8457 8459 1 109.909 292.880
8457 8456 8460 1 116.950 292.880
8458 8457 8459 1 108.464 276.144
8462 8463 8464 1 118.794 669.440
8463 8464 8465 1 123.066 418.400
8463 8464 8468 1 117.297 292.880
8464 8465 8466 1 109.745 292.880
8464 8465 8467 1 110.254 292.880
8465 8464 8468 1 116.799 292.880
8466 8465 8467 1 108.297 276.144
8470 8471 8472 1 115.974 669.440
8471 8472 8473 1 122.748 418.400
8471 8472 8476 1 117.141 292.880
8472 8473 8474 1 109.799 292.880
8472 8473 8475 1 110.394 292.880
8473 8472 8476 1 116.431 292.880
8474 8473 8475 1 108.377 276.144
8478 8479 8480 1 116.182 669.440
8479 8480 8481 1 123.014 418.400
8479 8480 8485 1 117.665 292.880
8480 8481 8482 1 112.146 669.440
8480 8481 8483 1 110.304 292.880
8480 8481 8484 1 109.909 292.880
8481 8480 8485 1 116.950 292.880
8482 8481 8483 1 108.147 292.880
8482 8481 8484 1 107.761 292.880
8483 8481 8484 1 108.464 276.144
8487 8488 8489 1 118.794 669.440
8488 8489 8490 1 123.066 418.400
8488 8489 8494 1 117.297 292.880
8489 8490 8491 1 112.574 669.440
8489 8490 8492 1 109.745 292.880
8489 8490 8493 1 110.254 292.880
8490 8489 8494 1 116.799 292.880
8491 8490 8492 1 107.865 292.880
8491 8490 8493 1 107.980 292.880
8492 8490 8493 1 108.297 276.144
8496 8497 8498 1 115.974 669.440
8497 8498 8499 1 122.748 418.400
8497 8498 8502 1 117.141 292.880
8498 8499 8500 1 109.799 292.880
8498 8499 8501 1 110.394 292.880
8499 8498 8502 1 116.431 292.880
8500 8499 8501 1 108.377 276.144
8504 8505 8506 1 116.182 669.440
8505 8506 8507 1 123.014 418.400
8505 8506 8510 1 117.665 292.880
8506 8507 8508 1 110.304 292.880
8506 8507 8509 1 109.909 292.880
8507 8506 8510 1 116.950 292.880
8508 8507 8509 1 108.464 276.144
8512 8513 8514 1 118.794 669.440
8513 8514 8515 1 123.066 418.400
8513 8514 8518 1 117.297 292.880
8514 8515 8516 1 109.745 292.880
8514 8515 8517 1 110.254 292.880
8515 8514 8518 1 116.799 292.880
8516 8515 8517 1 108.297 276.144
8520 8521 8522 1 115.974 669.440
8521 8522 8523 1 122.748 418.400
8521 8522 8526 1 117.141 292.880
8522 8523 8524 1 109.799 292.880
8522 8523 8525 1 110.394 292.880
8523 8522 8526 1 116.431 292.880
8524 8523 8525 1 108.377 276.144
8528 8529 8530 1 116.182 669.440
8529 8530 8531 1 123.014 418.400
8529 8530 8535 1 117.665 292.880
8530 8531 8532 1 112.146 669.440
8530 8531 8533 1 110.304 292.880
8530 8531 8534 1 109.909 292.880
8531 8530 8535 1 116.950 292.880
8532 8531 8533 1 108.147 292.880
8532 8531 8534 1 107.761 292.880
8533 8531 8534 1 108.464 276.144
8537 8538 8539 1 118.794 669.440
8538 8539 8540 1 123.066 418.400
8538 8539 8544 1 117.297 292.880
8539 8540 8541 1 112.574 669.440
8539 8540 8542 1 109.745 292.880
8539 8540 8543 1 110.254 292.880
8540 8539 8544 1 116.799 292.880
8541 8540 8542 1 107.865 292.880
8541 8540 8543 1 107.980 292.880
8542 8540 8543 1 108.297 276.144
8546 8547 8548 1 115.974 669.440
8547 8548 8549 1 122.748 418.400
8547 8548 8552 1 117.141 292.880
8548 8549 8550 1 109.799 292.880
8548 8549 8551 1 110.394 292.880
8549 8548 8552 1 116.431 292.880
8550 8549 8551 1 108.377 276.144
8554 8555 8556 1 116.182 669.440
8555 8556 8557 1 123.014 418.400
8555 8556 8561 1 117.665 292.880
8556 8557 8558 1 112.146 669.440
8556 8557 8559 1 110.304 292.880
8556 8557 8560 1 109.909 292.880
8557 8556 8561 1 116.950 292.880
8558 8557 8559 1 108.147 292.880
8558 8557 8560 1 107.761 292.880
8559 8557 8560 1 108.464 276.144
8563 8564 8565 1 118.794 669.440
8564 8565 8566 1 123.066 418.400
8564 8565 8569 1 117.297 292.880
8565 8566 8567 1 109.745 292.880
8565 8566 8568 1 110.254 292.880
8566 8565 8569 1 116.799 292.880
8567 8566 8568 1 108.297 276.144
8571 8572 8573 1 115.974 669.440
8572 8573 8574 1 122.748 418.400
8572 8573 8578 1 117.141 292.880
8573 8574 8575 1 112.203 669.440
8573 8574 8576 1 109.799 292.880
8573 8574 8577 1 110.394 292.880
8574 8573 8578 1 116.431 292.880
8575 8574 8576 1 107.812 292.880
8575 8574 8577 1 108.141 292.880
8576 8574 8577 1 108.377 276.144
8580 8581 8582 1 116.182 669.440
8581 8582 8583 1 123.014 418.400
8581 8582 8586 1 117.665 292.880
8582 8583 8584 1 110.304 292.880
8582 8583 8585 1 109.909 292.880
8583 8582 8586 1 116.950 292.880
8584 8583 8585 1 108.464 276.144
8588 8589 8590 1 118.794 669.440
8589 8590 8591 1 123.066 418.400
8589 8590 8594 1 117.297 292.880
8590 8591 8592 1 109.745 292.880
8590 8591 8593 1 110.254 292.880
8591 8590 8594 1 116.799 292.880
8592 8591 8593 1 108.297 276.144
8596 8597 8598 1 115.974 669.440
8597 8598 8599 1 122.748 418.400
8597 8598 8602 1 117.141 292.880
8598 8599 8600 1 109.799 292.880
8598 8599 8601 1 110.394 292.880
8599 8598 8602 1 116.431 292.880
8600 8599 8601 1 108.377 276.144
8604 8605 8606 1 116.182 669.440
8605 8606 8607 1 123.014 418.400
8605 8606 8611 1 117.665 292.880
8606 8607 8608 1 112.146 669.440
8606 8607 8609 1 110.304 292.880
8606 8607 8610 1 109.909 292.880
8607 8606 8611 1 116.950 292.880
8608 8607 8609 1 108.147 292.880
8608 8607 8610 1 107.761 292.880
8609 8607 8610 1 108.464 276.144
8613 8614 8615 1 118.794 669.440
8614 8615 8616 1 123.066 418.400
8614 8615 8620 1 117.297 292.880
8615 8616 8617 1 112.574 669.440
8615 8616 8618 1 109.745 292.880
8615 8616 8619 1 110.254 292.880
8616 8615 8620 1 116.799 292.880
8617 8616 8618 1 107.865 292.880
8617 8616 8619 1 107.980 292.880
8618 8616 8619 1 108.297 276.144
8622 8623 8624 1 115.974 669.440
8623 8624 8625 1 122.748 418.400
8623 8624 8629 1 117.141 292.880
8624 8625 8626 1 112.203 669.440
8624 8625 8627 1 109.799 292.880
8624 8625 8628 1 110.394 292.880
8625 8624 8629 1 116.431 292.880
8626 8625 8627 1 107.812 292.880
8626 8625 8628 1 108.141 292.880
8627 8625 8628 1 108.377 276.144
8631 8632 8633 1 116.182 669.440
8632 8633 8634 1 123.014 418.400
8632 8633 8637 1 117.665 292.880
8633 8634 8635 1 110.304 292.880
8633 8634 8636 1 109.909 292.880
8634 8633 8637 1 116.950 292.880
8635 8634 8636 1 108.464 276.144
8639 8640 8641 1 118.794 669.440
8640 8641 8642 1 123.066 418.400
8640 8641 8645 1 117.297 292.880
8641 8642 8643 1 109.745 292.880
8641 8642 8644 1 110.254 292.880
8642 8641 8645 1 116.799 292.880
8643 8642 8644 1 108.297 276.144
8647 8648 8649 1 115.974 669.440
8648 8649 8650 1 122.748 418.400
8648 8649 8653 1 117.141 292.880
8649 8650 8651 1 109.799 292.880
8649 8650 8652 1 110.394 292.880
8650 8649 8653 1 116.431 292.880
8651 8650 8652 1 108.377 276.144
8655 8656 8657 1 116.182 669.440
8656 8657 8658 1 123.014 418.400
8656 8657 8661 1 117.665 292.880
8657 8658 8659 1 110.304 292.880
8657 8658 8660 1 109.909 292.880
8658 8657 8661 1 116.950 292.880
8659 8658 8660 1 108.464 276.144
8663 8664 8665 1 118.794 669.440
8664 8665 8666 1 123.066 418.400
8664 8665 8669 1 117.297 292.880
8665 8666 8667 1 109.745 292.880
8665 8666 8668 1 110.254 292.880
8666 8665 8669 1 116.799 292.880
8667 8666 8668 1 108.297 276.144
8671 8672 8673 1 115.974 669.440
8672 8673 8674 1 122.748 418.400
8672 8673 8677 1 117.141 292.880
8673 8674 8675 1 109.799 292.880
8673 8674 8676 1 110.394 292.880
8674 8673 8677 1 116.431 292.880
8675 8674 8676 1 108.377 276.144
8679 8680 8681 1 116.182 669.440
8680 8681 8682 1 123.014 418.400
8680 8681 8686 1 117.665 292.880
8681 8682 8683 1 112.146 669.440
8681 8682 8684 1 110.304 292.880
8681 8682 8685 1 109.909 292.880
8682 8681 8686 1 116.950 292.880
8683 8682 8684 1 108.147 292.880
8683 8682 8685 1 107.761 292.880
8684 8682 8685 1 108.464 276.144
8688 8689 8690 1 118.794 669.440
8689 8690 8691 1 123.066 418.400
8689 8690 8694 1 117.297 292.880
8690 8691 8692 1 109.745 292.880
8690 8691 8693 1 110.254 292.880
8691 8690 8694 1 116.799 292.880
8692 8691 8693 1 108.297 276.144
8696 8697 8698 1 115.974 669.440
8697 8698 8699 1 122.748 418.400
8697 8698 8702 1 117.141 292.880
8698 8699 8700 1 109.799 292.880
8698 8699 8701 1 110.394 292.880
8699 8698 8702 1 116.431 292.880
8700 8699 8701 1 108.377 276.144
8704 8705 8706 1 116.182 669.440
8705 8706 8707 1 123.014 418.400
8705 8706 8712 1 117.665 292.880
8706 8707 8708 1 112.146 669.440
8706 8707 8710 1 110.304 292.880
8706 8707 8711 1 109.909 292.880
8707 8706 8712 1 116.950 292.880
8707 8708 8709 1 107.577 460.240
8708 8707 8710 1 108.147 292.880
8708 8707 8711 1 107.761 292.880
8710 8707 8711 1 108.464 276.144
8714 8715 8716 1 118.794 669.440
8715 8716 8717 1 123.066 418.400
8715 8716 8720 1 117.297 292.880
8716 8717 8718 1 109.745 292.880
8716 8717 8719 1 110.254 292.880
8717 8716 8720 1 116.799 292.880
8718 8717 8719 1 108.297 276.144
8722 8723 8724 1 115.974 669.440
8723 8724 8725 1 122.748 418.400
8723 8724 8728 1 117.141 292.880
8724 8725 8726 1 109.799 292.880
8724 8725 8727 1 110.394 292.880
8725 8724 8728 1 116.431 292.880
8726 8725 8727 1 108.377 276.144
8730 8731 8732 1 116.182 669.440
8731 8732 8733 1 123.014 418.400
8731 8732 8736 1 117.665 292.880
8732 8733 8734 1 110.304 292.880
8732 8733 8735 1 109.909 292.880
8733 8732 8736 1 116.950 292.880
8734 8733 8735 1 108.464 276.144
8738 8739 8740 1 118.794 669.440
8739 8740 8741 1 123.066 418.400
8739 8740 8745 1 117.297 292.880
8740 8741 8742 1 112.574 669.440
8740 8741 8743 1 109.745 292.880
8740 8741 8744 1 110.254 292.880
8741 8740 8745 1 116.799 292.880
8742 8741 8743 1 107.865 292.880
8742 8741 8744 1 107.980 292.880
8743 8741 8744 1 108.297 276.144
8747 8748 8749 1 115.974 669.440
8748 8749 8750 1 122.748 418.400
8748 8749 8754 1 117.141 292.880
8749 8750 8751 1 112.203 669.440
8749 8750 8752 1 109.799 292.880
8749 8750 8753 1 110.394 292.880
8750 8749 8754 1 116.431 292.880
8751 8750 8752 1 107.812 292.880
8751 8750 8753 1 108.141 292.880
8752 8750 8753 1 108.377 276.144
8756 8757 8758 1 116.182 669.440
8757 8758 8759 1 123.014 418.400
8757 8758 8763 1 117.665 292.880
8758 8759 8760 1 112.146 669.440
8758 8759 8761 1 110.304 292.880
8758 8759 8762 1 109.909 292.880
8759 8758 8763 1 116.950 292.880
8760 8759 8761 1 108.147 292.880
8760 8759 8762 1 107.761 292.880
8761 8759 8762 1 108.464 276.144
8765 8766 8767 1 118.794 669.440
8766 8767 8768 1 123.066 418.400
8766 8767 8772 1 117.297 292.880
8767 8768 8769 1 112.574 669.440
8767 8768 8770 1 109.745 292.880
8767 8768 8771 1 110.254 292.880
8768 8767 8772 1 116.799 292.880
8769 8768 8770 1 107.865 292.880
8769 8768 8771 1 107.980 292.880
8770 8768 8771 1 108.297 276.144
8774 8775 8776 1 115.974 669.440
8775 8776 8777 1 122.748 418.400
8775 8776 8780 1 117.141 292.880
8776 8777 8778 1 109.799 292.880
8776 8777 8779 1 110.394 292.880
8777 8776 8780 1 116.431 292.880
8778 8777 8779 1 108.377 276.144
8782 8783 8784 1 116.182 669.440
8783 8784 8785 1 123.014 418.400
8783 8784 8789 1 117.665 292.880
8784 8785 8786 1 112.146 669.440
8784 8785 8787 1 110.304 292.880
8784 8785 8788 1 109.909 292.880
8785 8784 8789 1 116.950 292.880
8786 8785 8787 1 108.147 292.880
8786 8785 8788 1 107.761 292.880
8787 8785 8788 1 108.464 276.144
8791 8792 8793 1 118.794 669.440
8792 8793 8794 1 123.066 418.400
8792 8793 8797 1 117.297 292.880
8793 8794 8795 1 109.745 292.880
8793 8794 8796 1 110.254 292.880
8794 8793 8797 1 116.799 292.880
8795 8794 8796 1 108.297 276.144
8799 8800 8801 1 115.974 669.440
8800 8801 8802 1 122.748 418.400
8800 8801 8806 1 117.141 292.880
8801 8802 8803 1 112.203 669.440
8801 8802 8804 1 109.799 292.880
8801 8802 8805 1 110.394 292.880
8802 8801 8806 1 116.431 292.880
8803 8802 8804 1 107.812 292.880
8803 8802 8805 1 108.141 292.880
8804 8802 8805 1 108.377 276.144
8808 8809 8810 1 116.182 669.440
8809 8810 8811 1 123.014 418.400
8809 8810 8814 1 117.665 292.880
8810 8811 8812 1 110.304 292.880
8810 8811 8813 1 109.909 292.880
8811 8810 8814 1 116.950 292.880
8812 8811 8813 1 108.464 276.144
8816 8817 8818 1 118.794 669.440
8817 8818 8819 1 123.066 418.400
8817 8818 8823 1 117.297 292.880
8818 8819 8820 1 112.574 669.440
8818 8819 8821 1 109.745 292.880
8818 8819 8822 1 110.254 292.880
8819 8818 8823 1 116.799 292.880
8820 8819 8821 1 107.865 292.880
8820 8819 8822 1 107.980 292.880
8821 8819 8822 1 108.297 276.144
8825 8826 8827 1 115.974 669.440
8826 8827 8828 1 122.748 418.400
8826 8827 8831 1 117.141 292.880
8827 8828 8829 1 109.799 292.880
8827 8828 8830 1 110.394 292.880
8828 8827 8831 1 116.431 292.880
8829 8828 8830 1 108.377 276.144
8833 8834 8835 1 116.182 669.440
8834 8835 8836 1 123.014 418.400
8834 8835 8839 1 117.665 292.880
8835 8836 8837 1 110.304 292.880
8835 8836 8838 1 109.909 292.880
8836 8835 8839 1 116.950 292.880
8837 8836 8838 1 108.464 276.144
8841 8842 8843 1 118.794 669.440
8842 8843 8844 1 123.066 418.400
8842 8843 8848 1 117.297 292.880
8843 8844 8845 1 112.574 669.440
8843 8844 8846 1 109.745 292.880
8843 8844 8847 1 110.254 292.880
8844 8843 8848 1 116.799 292.880
8845 8844 8846 1 107.865 292.880
8845 8844 8847 1 107.980 292.880
8846 8844 8847 1 108.297 276.144
8850 8851 8852 1 115.974 669.440
8851 8852 8853 1 122.748 418.400
8851 8852 8856 1 117.141 292.880
8852 8853 8854 1 109.799 292.880
8852 8853 8855 1 110.394 292.880
8853 8852 8856 1 116.431 292.880
8854 8853 8855 1 108.377 276.144
8858 8859 8860 1 116.182 669.440
8859 8860 8861 1 123.014 418.400
8859 8860 8865 1 117.665 292.880
8860 8861 8862 1 112.146 669.440
8860 8861 8863 1 110.304 292.880
8860 8861 8864 1 109.909 292.880
8861 8860 8865 1 116.950 292.880
8862 8861 8863 1 108.147 292.880
8862 8861 8864 1 107.761 292.880
8863 8861 8864 1 108.464 276.144
8867 8868 8869 1 118.794 669.440
8868 8869 8870 1 123.066 418.400
8868 8869 8873 1 117.297 292.880
8869 8870 8871 1 109.745 292.880
8869 8870 8872 1 110.254 292.880
8870 8869 8873 1 116.799 292.880
8871 8870 8872 1 108.297 276.144
8875 8876 8877 1 115.974 669.440
8876 8877 8878 1 122.748 418.400
8876 8877 8883 1 117.141 292.880
8877 8878 8879 1 112.203 669.440
8877 8878 8881 1 109.799 292.880
8877 8878 8882 1 110.394 292.880
8878 8877 8883 1 116.431 292.880
8878 8879 8880 1 107.831 460.240
8879 8878 8881 1 107.812 292.880
8879 8878 8882 1 108.141 292.880
8881 8878 8882 1 108.377 276.144
8885 8886 8887 1 116.182 669.440
8886 8887 8888 1 123.014 418.400
8886 8887 8891 1 117.665 292.880
8887 8888 8889 1 110.304 292.880
8887 8888 8890 1 109.909 292.880
8888 8887 8891 1 116.950 292.880
8889 8888 8890 1 108.464 276.144
8893 8894 8895 1 118.794 669.440
8894 8895 8896 1 123.066 418.400
8894 8895 8899 1 117.297 292.880
8895 8896 8897 1 109.745 292.880
8895 8896 8898 1 110.254 292.880
8896 8895 8899 1 116.799 292.880
8897 8896 8898 1 108.297 276.144
8901 8902 8903 1 115.974 669.440
8902 8903 8904 1 122.748 418.400
8902 8903 8907 1 117.141 292.880
8903 8904 8905 1 109.799 292.880
8903 8904 8906 1 110.394 292.880
8904 8903 8907 1 116.431 292.880
8905 8904 8906 1 108.377 276.144
8909 8910 8911 1 116.182 669.440
8910 8911 8912 1 123.014 418.400
8910 8911 8916 1 117.665 292.880
8911 8912 8913 1 112.146 669.440
8911 8912 8914 1 110.304 292.880
8911 8912 8915 1 109.909 292.880
8912 8911 8916 1 116.950 292.880
8913 8912 8914 1 108.147 292.880
8913 8912 8915 1 107.761 292.880
8914 8912 8915 1 108.464 276.144
8918 8919 8920 1 118.794 669.440
8919 8920 8921 1 123.066 418.400
8919 8920 8924 1 117.297 292.880
8920 8921 8922 1 109.745 292.880
8920 8921 8923 1 110.254 292.880
8921 8920 8924 1 116.799 292.880
8922 8921 8923 1 108.297 276.144
8926 8927 8928 1 115.974 669.440
8927 8928 8929 1 122.748 418.400
8927 8928 8934 1 117.141 292.880
8928 8929 8930 1 112.203 669.440
8928 8929 8932 1 109.799 292.880
8928 8929 8933 1 110.394 292.880
8929 8928 8934 1 116.431 292.880
8929 8930 8931 1 107.831 460.240
8930 8929 8932 1 107.812 292.880
8930 8929 8933 1 108.141 292.880
8932 8929 8933 1 108.377 276.144
8936 8937 8938 1 116.182 669.440
8937 8938 8939 1 123.014 418.400
8937 8938 8943 1 117.665 292.880
8938 8939 8940 1 112.146 669.440
8938 8939 8941 1 110.304 292.880
8938 8939 8942 1 109.909 292.880
8939 8938 8943 1 116.950 292.880
8940 8939 8941 1 108.147 292.880
8940 8939 8942 1 107.761 292.880
8941 8939 8942 1 108.464 276.144
8945 8946 8947 1 118.794 669.440
8946 8947 8948 1 123.066 418.400
8946 8947 8951 1 117.297 292.880
8947 8948 8949 1 109.745 292.880
8947 8948 8950 1 110.254 292.880
8948 8947 8951 1 116.799 292.880
8949 8948 8950 1 108.297 276.144
8953 8954 8955 1 115.974 669.440
8954 8955 8956 1 122.748 418.400
8954 8955 8960 1 117.141 292.880
8955 8956 8957 1 112.203 669.440
8955 8956 8958 1 109.799 292.880
8955 8956 8959 1 110.394 292.880
8956 8955 8960 1 116.431 292.880
8957 8956 8958 1 107.812 292.880
8957 8956 8959 1 108.141 292.880
8958 8956 8959 1 108.377 276.144
8962 8963 8964 1 116.182 669.440
8963 8964 8965 1 123.014 418.400
8963 8964 8969 1 117.665 292.880
8964 8965 8966 1 112.146 669.440
8964 8965 8967 1 110.304 292.880
8964 8965 8968 1 109.909 292.880
8965 8964 8969 1 116.950 292.880
8966 8965 8967 1 108.147 292.880
8966 8965 8968 1 107.761 292.880
8967 8965 8968 1 108.464 276.144
8971 8972 8973 1 118.794 669.440
8972 8973 8974 1 123.066 418.400
8972 8973 8977 1 117.297 292.880
8973 8974 8975 1 109.745 292.880
8973 8974 8976 1 110.254 292.880
8974 8973 8977 1 116.799 292.880
8975 8974 8976 1 108.297 276.144
8979 8980 8981 1 115.974 669.440
8980 8981 8982 1 122.748 418.400
8980 8981 8985 1 117.141 292.880
8981 8982 8983 1 109.799 292.880
8981 8982 8984 1 110.394 292.880
8982 8981 8985 1 116.431 292.880
8983 8982 8984 1 108.377 276.144
8987 8988 8989 1 116.182 669.440
8988 8989 8990 1 123.014 418.400
8988 8989 8993 1 117.665 292.880
8989 8990 8991 1 110.304 292.880
8989 8990 8992 1 109.909 292.880
8990 8989 8993 1 116.950 292.880
8991 8990 8992 1 108.464 276.144
8995 8996 8997 1 118.794 669.440
8996 8997 8998 1 123.066 418.400
8996 8997 9001 1 117.297 292.880
8997 8998 8999 1 109.745 292.880
8997 8998 9000 1 110.254 292.880
8998 8997 9001 1 116.799 292.880
8999 8998 9000 1 108.297 276.144
9003 9004 9005 1 115.974 669.440
9004 9005 9006 1 122.748 418.400
9004 9005 9011 1 117.141 292.880
9005 9006 9007 1 112.203 669.440
9005 9006 9009 1 109.799 292.880
9005 9006 9010 1 110.394 292.880
9006 9005 9011 1 116.431 292.880
9006 9007 9008 1 107.831 460.240
9007 9006 9009 1 107.812 292.880
9007 9006 9010 1 108.141 292.880
9009 9006 9010 1 108.377 276.144
9013 9014 9015 1 116.182 669.440
9014 9015 9016 1 123.014 418.400
9014 9015 9019 1 117.665 292.880
9015 9016 9017 1 110.304 292.880
9015 9016 9018 1 109.909 292.880
9016 9015 9019 1 116.950 292.880
9017 9016 9018 1 108.464 276.144
9021 9022 9023 1 118.794 669.440
9022 9023 9024 1 123.066 418.400
9022 9023 9027 1 117.297 292.880
9023 9024 9025 1 109.745 292.880
9023 9024 9026 1 110.254 292.880
9024 9023 9027 1 116.799 292.880
9025 9024 9026 1 108.297 276.144
9029 9030 9031 1 115.974 669.440
9030 9031 9032 1 122.748 418.400
9030 9031 9035 1 117.141 292.880
9031 9032 9033 1 109.799 292.880
9031 9032 9034 1 110.394 292.880
9032 9031 9035 1 116.431 292.880
9033 9032 9034 1 108.377 276.144
9037 9038 9039 1 116.182 669.440
9038 9039 9040 1 123.014 418.400
9038 9039 9044 1 117.665 292.880
9039 9040 9041 1 112.146 669.440
9039 9040 9042 1 110.304 292.880
9039 9040 9043 1 109.909 292.880
9040 9039 9044 1 116.950 292.880
9041 9040 9042 1 108.147 292.880
9041 9040 9043 1 107.761 292.880
9042 9040 9043 1 108.464 276.144
9046 9047 9048 1 118.794 669.440
9047 9048 9049 1 123.066 418.400
9047 9048 9052 1 117.297 292.880
9048 9049 9050 1 109.745 292.880
9048 9049 9051 1 110.254 292.880
9049 9048 9052 1 116.799 292.880
9050 9049 9051 1 108.297 276.144
9054 9055 9056 1 115.974 669.440
9055 9056 9057 1 122.748 418.400
9055 9056 9060 1 117.141 292.880
9056 9057 9058 1 109.799 292.880
9056 9057 9059 1 110.394 292.880
9057 9056 9060 1 116.431 292.880
9058 9057 9059 1 108.377 276.144
9062 9063 9064 1 116.182 669.440
9063 9064 9065 1 123.014 418.400
9063 9064 9068 1 117.665 292.880
9064 9065 9066 1 110.304 292.880
9064 9065 9067 1 109.909 292.880
9065 9064 9068 1 116.950 292.880
9066 9065 9067 1 108.464 276.144
9070 9071 9072 1 118.794 669.440
9071 9072 9073 1 123.066 418.400
9071 9072 9076 1 117.297 292.880
9072 9073 9074 1 109.745 292.880
9072 9073 9075 1 110.254 292.880
9073 9072 9076 1 116.799 292.880
9074 9073 9075 1 108.297 276.144
9078 9079 9080 1 115.974 669.440
9079 9080 9081 1 122.748 418.400
9079 9080 9084 1 117.141 292.880
9080 9081 9082 1 109.799 292.880
9080 9081 9083 1 110.394 292.880
9081 9080 9084 1 116.431 292.880
9082 9081 9083 1 108.377 276.144
9086 9087 9088 1 116.182 669.440
9087 9088 9089 1 123.014 418.400
9087 9088 9092 1 117.665 292.880
9088 9089 9090 1 110.304 292.880
9088 9089 9091 1 109.909 292.880
9089 9088 9092 1 116.950 292.880
9090 9089 9091 1 108.464 276.144
9094 9095 9096 1 118.794 669.440
9095 9096 9097 1 123.066 418.400
9095 9096 9101 1 117.297 292.880
9096 9097 9098 1 112.574 669.440
9096 9097 9099 1 109.745 292.880
9096 9097 9100 1 110.254 292.880
9097 9096 9101 1 116.799 292.880
9098 9097 9099 1 107.865 292.880
9098 9097 9100 1 107.980 292.880
9099 9097 9100 1 108.297 276.144
9103 9104 9105 1 115.974 669.440
9104 9105 9106 1 122.748 418.400
9104 9105 9109 1 117.141 292.880
9105 9106 9107 1 109.799 292.880
9105 9106 9108 1 110.394 292.880
9106 9105 9109 1 116.431 292.880
9107 9106 9108 1 108.377 276.144
9111 9112 9113 1 116.182 669.440
9112 9113 9114 1 123.014 418.400
9112 9113 9117 1 117.665 292.880
9113 9114 9115 1 110.304 292.880
9113 9114 9116 1 109.909 292.880
9114 9113 9117 1 116.950 292.880
9115 9114 9116 1 108.464 276.144
9119 9120 9121 1 118.794 669.440
9120 9121 9122 1 123.066 418.400
9120 9121 9126 1 117.297 292.880
9121 9122 9123 1 112.574 669.440
9121 9122 9124 1 109.745 292.880
9121 9122 9125 1 110.254 292.880
9122 9121 9126 1 116.799 292.880
9123 9122 9124 1 107.865 292.880
9123 9122 9125 1 107.980 292.880
9124 9122 9125 1 108.297 276.144
9128 9129 9130 1 115.974 669.440
9129 9130 9131 1 122.748 418.400
9129 9130 9134 1 117.141 292.880
9130 9131 9132 1 109.799 292.880
9130 9131 9133 1 110.394 292.880
9131 9130 9134 1 116.431 292.880
9132 9131 9133 1 108.377 276.144
9136 9137 9138 1 116.182 669.440
9137 9138 9139 1 123.014 418.400
9137 9138 9144 1 117.665 292.880
9138 9139 9140 1 112.146 669.440
9138 9139 9142 1 110.304 292.880
9138 9139 9143 1 109.909 292.880
9139 9138 9144 1 116.950 292.880
9139 9140 9141 1 107.577 460.240
9140 9139 9142 1 108.147 292.880
9140 9139 9143 1 107.761 292.880
9142 9139 9143 1 108.464 276.144
9146 9147 9148 1 118.794 669.440
9147 9148 9149 1 123.066 418.400
9147 9148 9154 1 117.297 292.880
9148 9149 9150 1 112.574 669.440
9148 9149 9152 1 109.745 292.880
9148 9149 9153 1 110.254 292.880
9149 9148 9154 1 116.799 292.880
9149 9150 9151 1 108.806 460.240
9150 9149 9152 1 107.865 292.880
9150 9149 9153 1 107.980 292.880
9152 9149 9153 1 108.297 276.144
9156 9157 9158 1 115.974 669.440
9157 9158 9159 1 122.748 418.400
9157 9158 9163 1 117.141 292.880
9158 9159 9160 1 112.203 669.440
9158 9159 9161 1 109.799 292.880
9158 9159 9162 1 110.394 292.880
9159 9158 9163 1 116.431 292.880
9160 9159 9161 1 107.812 292.880
9160 9159 9162 1 108.141 292.880
9161 9159 9162 1 108.377 276.144
9165 9166 9167 1 116.182 669.440
9166 9167 9168 1 123.014 418.400
9166 9167 9171 1 117.665 292.880
9167 9168 9169 1 110.304 292.880
9167 9168 9170 1 109.909 292.880
9168 9167 9171 1 116.950 292.880
9169 9168 9170 1 108.464 276.144
9173 9174 9175 1 118.794 669.440
9174 9175 9176 1 123.066 418.400
9174 9175 9179 1 117.297 292.880
9175 9176 9177 1 109.745 292.880
9175 9176 9178 1 110.254 292.880
9176 9175 9179 1 116.799 292.880
9177 9176 9178 1 108.297 276.144
9181 9182 9183 1 115.974 669.440
9182 9183 9184 1 122.748 418.400
9182 9183 9187 1 117.141 292.880
9183 9184 9185 1 109.799 292.880
9183 9184 9186 1 110.394 292.880
9184 9183 9187 1 116.431 292.880
9185 9184 9186 1 108.377 276.144
9189 9190 9191 1 116.182 669.440
9190 9191 9192 1 123.014 418.400
9190 9191 9195 1 117.665 292.880
9191 9192 9193 1 110.304 292.880
9191 9192 9194 1 109.909 292.880
9192 9191 9195 1 116.950 292.880
9193 9192 9194 1 108.464 276.144
9197 9198 9199 1 118.794 669.440
9198 9199 9200 1 123.066 418.400
9198 9199 9203 1 117.297 292.880
9199 9200 9201 1 109.745 292.880
9199 9200 9202 1 110.254 292.880
9200 9199 9203 1 116.799 292.880
9201 9200 9202 1 108.297 276.144
9205 9206 9207 1 115.974 669.440
9206 9207 9208 1 122.748 418.400
9206 9207 9212 1 117.141 292.880
9207 9208 9209 1 112.203 669.440
9207 9208 9210 1 109.799 292.880
9207 9208 9211 1 110.394 292.880
9208 9207 9212 1 116.431 292.880
9209 9208 9210 1 107.812 292.880
9209 9208 9211 1 108.141 292.880
9210 9208 9211 1 108.377 276.144
9214 9215 9216 1 116.182 669.440
9215 9216 9217 1 123.014 418.400
9215 9216 9220 1 117.665 292.880
9216 9217 9218 1 110.304 292.880
9216 9217 9219 1 109.909 292.880
9217 9216 9220 1 116.950 292.880
9218 9217 9219 1 108.464 276.144
9222 9223 9224 1 118.794 669.440
9223 9224 9225 1 123.066 418.400
9223 9224 9228 1 117.297 292.880
9224 9225 9226 1 109.745 292.880
9224 9225 9227 1 110.254 292.880
9225 9224 9228 1 116.799 292.880
9226 9225 9227 1 108.297 276.144
9230 9231 9232 1 115.974 669.440
9231 9232 9233 1 122.748 418.400
9231 9232 9236 1 117.141 292.880
9232 9233 9234 1 109.799 292.880
9232 9233 9235 1 110.394 292.880
9233 9232 9236 1 116.431 292.880
9234 9233 9235 1 108.377 276.144
9238 9239 9240 1 116.182 669.440
9239 9240 9241 1 123.014 418.400
9239 9240 9245 1 117.665 292.880
9240 9241 9242 1 112.146 669.440
9240 9241 9243 1 110.304 292.880
9240 9241 9244 1 109.909 292.880
9241 9240 9245 1 116.950 292.880
9242 9241 9243 1 108.147 292.880
9242 9241 9244 1 107.761 292.880
9243 9241 9244 1 108.464 276.144
9247 9248 9249 1 118.794 669.440
9248 9249 9250 1 123.066 418.400
9248 9249 9253 1 117.297 292.880
9249 9250 9251 1 109.745 292.880
9249 9250 9252 1 110.254 292.880
9250 9249 9253 1 116.799 292.880
9251 9250 9252 1 108.297 276.144
9255 9256 9257 1 115.974 669.440
9256 9257 9258 1 122.748 418.400
9256 9257 9261 1 117.141 292.880
9257 9258 9259 1 109.799 292.880
9257 9258 9260 1 110.394 292.880
9258 9257 9261 1 116.431 292.880
9259 9258 9260 1 108.377 276.144
9263 9264 9265 1 116.182 669.440
9264 9265 9266 1 123.014 418.400
9264 9265 9269 1 117.665 292.880
9265 9266 9267 1 110.304 292.880
9265 9266 9268 1 109.909 292.880
9266 9265 9269 1 116.950 292.880
9267 9266 9268 1 108.464 276.144
9271 9272 9273 1 118.794 669.440
9272 9273 9274 1 123.066 418.400
9272 9273 9277 1 117.297 292.880
9273 9274 9275 1 109.745 292.880
9273 9274 9276 1 110.254 292.880
9274 9273 9277 1 116.799 292.880
9275 9274 9276 1 108.297 276.144
9279 9280 9281 1 115.974 669.440
9280 9281 9282 1 122.748 418.400
9280 9281 9285 1 117.141 292.880
9281 9282 9283 1 109.799 292.880
9281 9282 9284 1 110.394 292.880
9282 9281 9285 1 116.431 292.880
9283 9282 9284 1 108.377 276.144
9287 9288 9289 1 116.182 669.440
9288 9289 9290 1 123.014 418.400
9288 9289 9293 1 117.665 292.880
9289 9290 9291 1 110.304 292.880
9289 9290 9292 1 109.909 292.880
9290 9289 9293 1 116.950 292.880
9291 9290 9292 1 108.464 276.144
9295 9296 9297 1 118.794 669.440
9296 9297 9298 1 123.066 418.400
9296 9297 9303 1 117.297 292.880
9297 9298 9299 1 112.574 669.440
9297 9298 9301 1 109.745 292.880
9297 9298 9302 1 110.254 292.880
9298 9297 9303 1 116.799 292.880
9298 9299 9300 1 108.806 460.240
9299 9298 9301 1 107.865 292.880
9299 9298 9302 1 107.980 292.880
9301 9298 9302 1 108.297 276.144
9305 9306 9307 1 115.974 669.440
9306 9307 9308 1 122.748 418.400
9306 9307 9311 1 117.141 292.880
9307 9308 9309 1 109.799 292.880
9307 9308 9310 1 110.394 292.880
9308 9307 9311 1 116.431 292.880
9309 9308 9310 1 108.377 276.144
9313 9314 9315 1 116.182 669.440
9314 9315 9316 1 123.014 418.400
9314 9315 9320 1 117.665 292.880
9315 9316 9317 1 112.146 669.440
9315 9316 9318 1 110.304 292.880
9315 9316 9319 1 109.909 292.880
9316 9315 9320 1 116.950 292.880
9317 9316 9318 1 108.147 292.880
9317 9316 9319 1 107.761 292.880
9318 9316 9319 1 108.464 276.144
9322 9323 9324 1 118.794 669.440
9323 9324 9325 1 123.066 418.400
9323 9324 9329 1 117.297 292.880
9324 9325 9326 1 112.574 669.440
9324 9325 9327 1 109.745 292.880
9324 9325 9328 1 110.254 292.880
9325 9324 9329 1 116.799 292.880
9326 9325 9327 1 107.865 292.880
9326 9325 9328 1 107.980 292.880
9327 9325 9328 1 108.297 276.144
9331 9332 9333 1 115.974 669.440
9332 9333 9334 1 122.748 418.400
9332 9333 9337 1 117.141 292.880
9333 9334 9335 1 109.799 292.880
9333 9334 9336 1 110.394 292.880
9334 9333 9337 1 116.431 292.880
9335 9334 9336 1 108.377 276.144
9339 9340 9341 1 116.182 669.440
9340 9341 9342 1 123.014 418.400
9340 9341 9345 1 117.665 292.880
9341 9342 9343 1 110.304 292.880
9341 9342 9344 1 109.909 292.880
9342 9341 9345 1 116.950 292.880
9343 9342 9344 1 108.464 276.144
9347 9348 9349 1 118.794 669.440
9348 9349 9350 1 123.066 418.400
9348 9349 9354 1 117.297 292.880
9349 9350 9351 1 112.574 669.440
9349 9350 9352 1 109.745 292.880
9349 9350 9353 1 110.254 292.880
9350 9349 9354 1 116.799 292.880
9351 9350 9352 1 107.865 292.880
9351 9350 9353 1 107.980 292.880
9352 9350 9353 1 108.297 276.144
9356 9357 9358 1 115.974 669.440
9357 9358 9359 1 122.748 418.400
9357 9358 9362 1 117.141 292.880
9358 9359 9360 1 109.799 292.880
9358 9359 9361 1 110.394 292.880
9359 9358 9362 1 116.431 292.880
9360 9359 9361 1 108.377 276.144
9364 9365 9366 1 116.182 669.440
9365 9366 9367 1 123.014 418.400
9365 9366 9370 1 117.665 292.880
9366 9367 9368 1 110.304 292.880
9366 9367 9369 1 109.909 292.880
9367 9366 9370 1 116.950 292.880
9368 9367 9369 1 108.464 276.144
9372 9373 9374 1 118.794 669.440
9373 9374 9375 1 123.066 418.400
9373 9374 9380 1 117.297 292.880
9374 9375 9376 1 112.574 669.440
9374 9375 9378 1 109.745 292.880
9374 9375 9379 1 110.254 292.880
9375 9374 9380 1 116.799 292.880
9375 9376 9377 1 108.806 460.240
9376 9375 9378 1 107.865 292.880
9376 9375 9379 1 107.980 292.880
9378 9375 9379 1 108.297 276.144
9382 9383 9384 1 115.974 669.440
9383 9384 9385 1 122.748 418.400
9383 9384 9389 1 117.141 292.880
9384 9385 9386 1 112.203 669.440
9384 9385 9387 1 109.799 292.880
9384 9385 9388 1 110.394 292.880
9385 9384 9389 1 116.431 292.880
9386 9385 9387 1 107.812 292.880
9386 9385 9388 1 108.141 292.880
9387 9385 9388 1 108.377 276.144
9391 9392 9393 1 116.182 669.440
9392 9393 9394 1 123.014 418.400
9392 9393 9397 1 117.665 292.880
9393 9394 9395 1 110.304 292.880
9393 9394 9396 1 109.909 292.880
9394 9393 9397 1 116.950 292.880
9395 9394 9396 1 108.464 276.144
9399 9400 9401 1 118.794 669.440
9400 9401 9402 1 123.066 418.400
9400 9401 9405 1 117.297 292.880
9401 9402 9403 1 109.745 292.880
9401 9402 9404 1 110.254 292.880
9402 9401 9405 1 116.799 292.880
9403 9402 9404 1 108.297 276.144
9407 9408 9409 1 115.974 669.440
9408 9409 9410 1 122.748 418.400
9408 9409 9413 1 117.141 292.880
9409 9410 9411 1 109.799 292.880
9409 9410 9412 1 110.394 292.880
9410 9409 9413 1 116.431 292.880
9411 9410 9412 1 108.377 276.144
9415 9416 9417 1 116.182 669.440
9416 9417 9418 1 123.014 418.400
9416 9417 9421 1 117.665 292.880
9417 9418 9419 1 110.304 292.880
9417 9418 9420 1 109.909 292.880
9418 9417 9421 1 116.950 292.880
9419 9418 9420 1 108.464 276.144
9423 9424 9425 1 118.794 669.440
9424 9425 9426 1 123.066 418.400
9424 9425 9429 1 117.297 292.880
9425 9426 9427 1 109.745 292.880
9425 9426 9428 1 110.254 292.880
9426 9425 9429 1 116.799 292.880
9427 9426 9428 1 108.297 276.144
9431 9432 9433 1 115.974 669.440
9432 9433 9434 1 122.748 418.400
9432 9433 9437 1 117.141 292.880
9433 9434 9435 1 109.799 292.880
9433 9434 9436 1 110.394 292.880
9434 9433 9437 1 116.431 292.880
9435 9434 9436 1 108.377 276.144
9439 9440 9441 1 116.182 669.440
9440 9441 9442 1 123.014 418.400
9440 9441 9446 1 117.665 292.880
9441 9442 9443 1 112.146 669.440
9441 9442 9444 1 110.304 292.880
9441 9442 9445 1 109.909 292.880
9442 9441 9446 1 116.950 292.880
9443 9442 9444 1 108.147 292.880
9443 9442 9445 1 107.761 292.880
9444 9442 9445 1 108.464 276.144
9448 9449 9450 1 118.794 669.440
9449 9450 9451 1 123.066 418.400
9449 9450 9454 1 117.297 292.880
9450 9451 9452 1 109.745 292.880
9450 9451 9453 1 110.254 292.880
9451 9450 9454 1 116.799 292.880
9452 9451 9453 1 108.297 276.144
9456 9457 9458 1 115.974 669.440
9457 9458 9459 1 122.748 418.400
9457 9458 9462 1 117.141 292.880
9458 9459 9460 1 109.799 292.880
9458 9459 9461 1 110.394 292.880
9459 9458 9462 1 116.431 292.880
9460 9459 9461 1 108.377 276.144
9464 9465 9466 1 116.182 669.440
9465 9466 9467 1 123.014 418.400
9465 9466 9470 1 117.665 292.880
9466 9467 9468 1 110.304 292.880
9466 9467 9469 1 109.909 292.880
9467 9466 9470 1 116.950 292.880
9468 9467 9469 1 108.464 276.144
9472 9473 9474 1 118.794 669.440
9473 9474 9475 1 123.066 418.400
9473 9474 9478 1 117.297 292.880
9474 9475 9476 1 109.745 292.880
9474 9475 9477 1 110.254 292.880
9475 9474 9478 1 116.799 292.880
9476 9475 9477 1 108.297 276.144
9480 9481 9482 1 115.974 669.440
9481 9482 9483 1 122.748 418.400
9481 9482 9487 1 117.141 292.880
9482 9483 9484 1 112.203 669.440
9482 9483 9485 1 109.799 292.880
9482 9483 9486 1 110.394 292.880
9483 9482 9487 1 116.431 292.880
9484 9483 9485 1 107.812 292.880
9484 9483 9486 1 108.141 292.880
9485 9483 9486 1 108.377 276.144
9489 9490 9491 1 116.182 669.440
9490 9491 9492 1 123.014 418.400
9490 9491 9496 1 117.665 292.880
9491 9492 9493 1 112.146 669.440
9491 9492 9494 1 110.304 292.880
9491 9492 9495 1 109.909 292.880
9492 9491 9496 1 116.950 292.880
9493 9492 9494 1 108.147 292.880
9493 9492 9495 1 107.761 292.880
9494 9492 9495 1 108.464 276.144
9498 9499 9500 1 118.794 669.440
9499 9500 9501 1 123.066 418.400
9499 9500 9504 1 117.297 292.880
9500 9501 9502 1 109.745 292.880
9500 9501 9503 1 110.254 292.880
9501 9500 9504 1 116.799 292.880
9502 9501 9503 1 108.297 276.144
9506 9507 9508 1 115.974 669.440
9507 9508 9509 1 122.748 418.400
9507 9508 9513 1 117.141 292.880
9508 9509 9510 1 112.203 669.440
9508 9509 9511 1 109.799 292.880
9508 9509 9512 1 110.394 292.880
9509 9508 9513 1 116.431 292.880
9510 9509 9511 1 107.812 292.880
9510 9509 9512 1 108.141 292.880
9511 9509 9512 1 108.377 276.144
9515 9516 9517 1 116.182 669.440
9516 9517 9518 1 123.014 418.400
9516 9517 9522 1 117.665 292.880
9517 9518 9519 1 112.146 669.440
9517 9518 9520 1 110.304 292.880
9517 9518 9521 1 109.909 292.880
9518 9517 9522 1 116.950 292.880
9519 9518 9520 1 108.147 292.880
9519 9518 9521 1 107.761 292.880
9520 9518 9521 1 108.464 276.144
9524 9525 9526 1 118.794 669.440
9525 9526 9527 1 123.066 418.400
9525 9526 9530 1 117.297 292.880
9526 9527 9528 1 109.745 292.880
9526 9527 9529 1 110.254 292.880
9527 9526 9530 1 116.799 292.880
9528 9527 9529 1 108.297 276.144
9532 9533 9534 1 115.974 669.440
9533 9534 9535 1 122.748 418.400
9533 9534 9539 1 117.141 292.880
9534 9535 9536 1 112.203 669.440
9534 9535 9537 1 109.799 292.880
9534 9535 9538 1 110.394 292.880
9535 9534 9539 1 116.431 292.880
9536 9535 9537 1 107.812 292.880
9536 9535 9538 1 108.141 292.880
9537 9535 9538 1 108.377 276.144
9541 9542 9543 1 116.182 669.440
9542 9543 9544 1 123.014 418.400
9542 9543 9547 1 117.665 292.880
9543 9544 9545 1 110.304 292.880
9543 9544 9546 1 109.909 292.880
9544 9543 9547 1 116.950 292.880
9545 9544 9546 1 108.464 276.144
9549 9550 9551 1 118.794 669.440
9550 9551 9552 1 123.066 418.400
9550 9551 9556 1 117.297 292.880
9551 9552 9553 1 112.574 669.440
9551 9552 9554 1 109.745 292.880
9551 9552 9555 1 110.254 292.880
9552 9551 9556 1 116.799 292.880
9553 9552 9554 1 107.865 292.880
9553 9552 9555 1 107.980 292.880
9554 9552 9555 1 108.297 276.144
9558 9559 9560 1 115.974 669.440
9559 9560 9561 1 122.748 418.400
9559 9560 9564 1 117.141 292.880
9560 9561 9562 1 109.799 292.880
9560 9561 9563 1 110.394 292.880
9561 9560 9564 1 116.431 292.880
9562 9561 9563 1 108.377 276.144
9566 9567 9568 1 116.182 669.440
9567 9568 9569 1 123.014 418.400
9567 9568 9573 1 117.665 292.880
9568 9569 9570 1 112.146 669.440
9568 9569 9571 1 110.304 292.880
9568 9569 9572 1 109.909 292.880
9569 9568 9573 1 116.950 292.880
9570 9569 9571 1 108.147 292.880
9570 9569 9572 1 107.761 292.880
9571 9569 9572 1 108.464 276.144
9575 9576 9577 1 118.794 669.440
9576 9577 9578 1 123.066 418.400
9576 9577 9583 1 117.297 292.880
9577 9578 9579 1 112.574 669.440
9577 9578 9581 1 109.745 292.880
9577 9578 9582 1 110.254 292.880
9578 9577 9583 1 116.799 292.880
9578 9579 9580 1 108.806 460.240
9579 9578 9581 1 107.865 292.880
9579 9578 9582 1 107.980 292.880
9581 9578 9582 1 108.297 276.144
9585 9586 9587 1 115.974 669.440
9586 9587 9588 1 122.748 418.400
9586 9587 9592 1 117.141 292.880
9587 9588 9589 1 112.203 669.440
9587 9588 9590 1 109.799 292.880
9587 9588 9591 1 110.394 292.880
9588 9587 9592 1 116.431 292.880
9589 9588 9590 1 107.812 292.880
9589 9588 9591 1 108.141 292.880
9590 9588 9591 1 108.377 276.144
9594 9595 9596 1 116.182 669.440
9595 9596 9597 1 123.014 418.400
9595 9596 9601 1 117.665 292.880
9596 9597 9598 1 112.146 669.440
9596 9597 9599 1 110.304 292.880
9596 9597 9600 1 109.909 292.880
9597 9596 9601 1 116.950 292.880
9598 9597 9599 1 108.147 292.880
9598 9597 9600 1 107.761 292.880
9599 9597 9600 1 108.464 276.144
9603 9604 9605 1 118.794 669.440
9604 9605 9606 1 123.066 418.400
9604 9605 9609 1 117.297 292.880
9605 9606 9607 1 109.745 292.880
9605 9606 9608 1 110.254 292.880
9606 9605 9609 1 116.799 292.880
9607 9606 9608 1 108.297 276.144
9611 9612 9613 1 115.974 669.440
9612 9613 9614 1 122.748 418.400
9612 9613 9617 1 117.141 292.880
9613 9614 9615 1 109.799 292.880
9613 9614 9616 1 110.394 292.880
9614 9613 9617 1 116.431 292.880
9615 9614 9616 1 108.377 276.144
9619 9620 9621 1 116.182 669.440
9620 9621 9622 1 123.014 418.400
9620 9621 9625 1 117.665 292.880
9621 9622 9623 1 110.304 292.880
9621 9622 9624 1 109.909 292.880
9622 9621 9625 1 116.950 292.880
9623 9622 9624 1 108.464 276.144
9627 9628 9629 1 118.794 669.440
9628 9629 9630 1 123.066 418.400
9628 9629 9633 1 117.297 292.880
9629 9630 9631 1 109.745 292.880
9629 9630 9632 1 110.254 292.880
9630 9629 9633 1 116.799 292.880
9631 9630 9632 1 108.297 276.144
9635 9636 9637 1 115.974 669.440
9636 9637 9638 1 122.748 418.400
9636 9637 9641 1 117.141 292.880
9637 9638 9639 1 109.799 292.880
9637 9638 9640 1 110.394 292.880
9638 9637 9641 1 116.431 292.880
9639 9638 9640 1 108.377 276.144
9643 9644 9645 1 116.182 669.440
9644 9645 9646 1 123.014 418.400
9644 9645 9651 1 117.665 292.880
9645 9646 9647 1 112.146 669.440
9645 9646 9649 1 110.304 292.880
9645 9646 9650 1 109.909 292.880
9646 9645 9651 1 116.950 292.880
9646 9647 9648 1 107.577 460.240
9647 9646 9649 1 108.147 292.880
9647 9646 9650 1 107.761 292.880
9649 9646 9650 1 108.464 276.144
9653 9654 9655 1 118.794 669.440
9654 9655 9656 1 123.066 418.400
9654 9655 9659 1 117.297 292.880
9655 9656 9657 1 109.745 292.880
9655 9656 9658 1 110.254 292.880
9656 9655 9659 1 116.799 292.880
9657 9656 9658 1 108.297 276.144
9661 9662 9663 1 115.974 669.440
9662 9663 9664 1 122.748 418.400
9662 9663 9667 1 117.141 292.880
9663 9664 9665 1 109.799 292.880
9663 9664 9666 1 110.394 292.880
9664 9663 9667 1 116.431 292.880
9665 9664 9666 1 108.377 276.144
9669 9670 9671 1 116.182 669.440
9670 9671 9672 1 123.014 418.400
9670 9671 9675 1 117.665 292.880
9671 9672 9673 1 110.304 292.880
9671 9672 9674 1 109.909 292.880
9672 9671 9675 1 116.950 292.880
9673 9672 9674 1 108.464 276.144
9677 9678 9679 1 118.794 669.440
9678 9679 9680 1 123.066 418.400
9678 9679 9683 1 117.297 292.880
9679 9680 9681 1 109.745 292.880
9679 9680 9682 1 110.254 292.880
9680 9679 9683 1 116.799 292.880
9681 9680 9682 1 108.297 276.144
9685 9686 9687 1 115.974 669.440
9686 9687 9688 1 122.748 418.400
9686 9687 9691 1 117.141 292.880
9687 9688 9689 1 109.799 292.880
9687 9688 9690 1 110.394 292.880
9688 9687 9691 1 116.431 292.880
9689 9688 9690 1 108.377 276.144
9693 9694 9695 1 116.182 669.440
9694 9695 9696 1 123.014 418.400
9694 9695 9699 1 117.665 292.880
9695 9696 9697 1 110.304 292.880
9695 9696 9698 1 109.909 292.880
9696 9695 9699 1 116.950 292.880
9697 9696 9698 1 108.464 276.144
9701 9702 9703 1 118.794 669.440
9702 9703 9704 1 123.066 418.400
9702 9703 9707 1 117.297 292.880
9703 9704 9705 1 109.745 292.880
9703 9704 9706 1 110.254 292.880
9704 9703 9707 1 116.799 292.880
9705 9704 9706 1 108.297 276.144
9709 9710 9711 1 115.974 669.440
9710 9711 9712 1 122.748 418.400
9710 9711 9716 1 117.141 292.880
9711 9712 9713 1 112.203 669.440
9711 9712 9714 1 109.799 292.880
9711 9712 9715 1 110.394 292.880
9712 9711 9716 1 116.431 292.880
9713 9712 9714 1 107.812 292.880
9713 9712 9715 1 108.141 292.880
9714 9712 9715 1 108.377 276.144
9718 9719 9720 1 116.182 669.440
9719 9720 9721 1 123.014 418.400
9719 9720 9724 1 117.665 292.880
9720 9721 9722 1 110.304 292.880
9720 9721 9723 1 109.909 292.880
9721 9720 9724 1 116.950 292.880
9722 9721 9723 1 108.464 276.144
9726 9727 9728 1 118.794 669.440
9727 9728 9729 1 123.066 418.400
9727 9728 9732 1 117.297 292.880
9728 9729 9730 1 109.745 292.880
9728 9729 9731 1 110.254 292.880
9729 9728 9732 1 116.799 292.880
9730 9729 9731 1 108.297 276.144
9734 9735 9736 1 115.974 669.440
9735 9736 9737 1 122.748 418.400
9735 9736 9740 1 117.141 292.880
9736 9737 9738 1 109.799 292.880
9736 9737 9739 1 110.394 292.880
9737 9736 9740 1 116.431 292.880
9738 9737 9739 1 108.377 276.144
9742 9743 9744 1 116.182 669.440
9743 9744 9745 1 123.014 418.400
9743 9744 9749 1 117.665 292.880
9744 9745 9746 1 112.146 669.440
9744 9745 9747 1 110.304 292.880
9744 9745 9748 1 109.909 292.880
9745 9744 9749 1 116.950 292.880
9746 9745 9747 1 108.147 292.880
9746 9745 9748 1 107.761 292.880
9747 9745 9748 1 108.464 276.144
9751 9752 9753 1 118.794 669.440
9752 9753 9754 1 123.066 418.400
9752 9753 9757 1 117.297 292.880
9753 9754 9755 1 109.745 292.880
9753 9754 9756 1 110.254 292.880
9754 9753 9757 1 116.799 292.880
9755 9754 9756 1 108.297 276.144
9759 9760 9761 1 115.974 669.440
9760 9761 9762 1 122.748 418.400
9760 9761 9767 1 117.141 292.880
9761 9762 9763 1 112.203 669.440
9761 9762 9765 1 109.799 292.880
9761 9762 9766 1 110.394 292.880
9762 9761 9767 1 116.431 292.880
9762 9763 9764 1 107.831 460.240
9763 9762 9765 1 107.812 292.880
9763 9762 9766 1 108.141 292.880
9765 9762 9766 1 108.377 276.144
9769 9770 9771 1 116.182 669.440
9770 9771 9772 1 123.014 418.400
9770 9771 9776 1 117.665 292.880
9771 9772 9773 1 112.146 669.440
9771 9772 9774 1 110.304 292.880
9771 9772 9775 1 109.909 292.880
9772 9771 9776 1 116.950 292.880
9773 9772 9774 1 108.147 292.880
9773 9772 9775 1 107.761 292.880
9774 9772 9775 1 108.464 276.144
9778 9779 9780 1 118.794 669.440
9779 9780 9781 1 123.066 418.400
9779 9780 9784 1 117.297 292.880
9780 9781 9782 1 109.745 292.880
9780 9781 9783 1 110.254 292.880
9781 9780 9784 1 116.799 292.880
9782 9781 9783 1 108.297 276.144
9786 9787 9788 1 115.974 669.440
9787 9788 9789 1 122.748 418.400
9787 9788 9793 1 117.141 292.880
9788 9789 9790 1 112.203 669.440
9788 9789 9791 1 109.799 292.880
9788 9789 9792 1 110.394 292.880
9789 9788 9793 1 116.431 292.880
9790 9789 9791 1 107.812 292.880
9790 9789 9792 1 108.141 292.880
9791 9789 9792 1 108.377 276.144
9795 9796 9797 1 116.182 669.440
9796 9797 9798 1 123.014 418.400
9796 9797 9803 1 117.665 292.880
9797 9798 9799 1 112.146 669.440
9797 9798 9801 1 110.304 292.880
9797 9798 9802 1 109.909 292.880
9798 9797 9803 1 116.950 292.880
9798 9799 9800 1 107.577 460.240
9799 9798 9801 1 108.147 292.880
9799 9798 9802 1 107.761 292.880
9801 9798 9802 1 108.464 276.144
9805 9806 9807 1 118.794 669.440
9806 9807 9808 1 123.066 418.400
9806 9807 9813 1 117.297 292.880
9807 9808 9809 1 112.574 669.440
9807 9808 9811 1 109.745 292.880
9807 9808 9812 1 110.254 292.880
9808 9807 9813 1 116.799 292.880
9808 9809 9810 1 108.806 460.240
9809 9808 9811 1 107.865 292.880
9809 9808 9812 1 107.980 292.880
9811 9808 9812 1 108.297 276.144
9815 9816 9817 1 115.974 669.440
9816 9817 9818 1 122.748 418.400
9816 9817 9822 1 117.141 292.880
9817 9818 9819 1 112.203 669.440
9817 9818 9820 1 109.799 292.880
9817 9818 9821 1 110.394 292.880
9818 9817 9822 1 116.431 292.880
9819 9818 9820 1 107.812 292.880
9819 9818 9821 1 108.141 292.880
9820 9818 9821 1 108.377 276.144
9824 9825 9826 1 116.182 669.440
9825 9826 9827 1 123.014 418.400
9825 9826 9831 1 117.665 292.880
9826 9827 9828 1 112.146 669.440
9826 9827 9829 1 110.304 292.880
9826 9827 9830 1 109.909 292.880
9827 9826 9831 1 116.950 292.880
9828 9827 9829 1 108.147 292.880
9828 9827 9830 1 107.761 292.880
9829 9827 9830 1 108.464 276.144
9833 9834 9835 1 118.794 669.440
9834 9835 9836 1 123.066 418.400
9834 9835 9839 1 117.297 292.880
9835 9836 9837 1 109.745 292.880
9835 9836 9838 1 110.254 292.880
9836 9835 9839 1 116.799 292.880
9837 9836 9838 1 108.297 276.144
9841 9842 9843 1 115.974 669.440
9842 9843 9844 1 122.748 418.400
9842 9843 9848 1 117.141 292.880
9843 9844 9845 1 112.203 669.440
9843 9844 9846 1 109.799 292.880
9843 9844 9847 1 110.394 292.880
9844 9843 9848 1 116.431 292.880
9845 9844 9846 1 107.812 292.880
9845 9844 9847 1 108.141 292.880
9846 9844 9847 1 108.377 276.144
9850 9851 9852 1 116.182 669.440
9851 9852 9853 1 123.014 418.400
9851 9852 9856 1 117.665 292.880
9852 9853 9854 1 110.304 292.880
9852 9853 9855 1 109.909 292.880
9853 9852 9856 1 116.950 292.880
9854 9853 9855 1 108.464 276.144
9858 9859 9860 1 118.794 669.440
9859 9860 9861 1 123.066 418.400
9859 9860 9865 1 117.297 292.880
9860 9861 9862 1 112.574 669.440
9860 9861 9863 1 109.745 292.880
9860 9861 9864 1 110.254 292.880
9861 9860 9865 1 116.799 292.880
9862 9861 9863 1 107.865 292.880
9862 9861 9864 1 107.980 292.880
9863 9861 9864 1 108.297 276.144
9867 9868 9869 1 115.974 669.440
9868 9869 9870 1 122.748 418.400
9868 9869 9873 1 117.141 292.880
9869 9870 9871 1 109.799 292.880
9869 9870 9872 1 110.394 292.880
9870 9869 9873 1 116.431 292.880
9871 9870 9872 1 108.377 276.144
9875 9876 9877 1 116.182 669.440
9876 9877 9878 1 123.014 418.400
9876 9877 9883 1 117.665 292.880
9877 9878 9879 1 112.146 669.440
9877 9878 9881 1 110.304 292.880
9877 9878 9882 1 109.909 292.880
9878 9877 9883 1 116.950 292.880
9878 9879 9880 1 107.577 460.240
9879 9878 9881 1 108.147 292.880
9879 9878 9882 1 107.761 292.880
9881 9878 9882 1 108.464 276.144
9885 9886 9887 1 118.794 669.440
9886 9887 9888 1 123.066 418.400
9886 9887 9891 1 117.297 292.880
9887 9888 9889 1 109.745 292.880
9887 9888 9890 1 110.254 292.880
9888 9887 9891 1 116.799 292.880
9889 9888 9890 1 108.297 276.144
9893 9894 9895 1 115.974 669.440
9894 9895 9896 1 122.748 418.400
9894 9895 9899 1 117.141 292.880
9895 9896 9897 1 109.799 292.880
9895 9896 9898 1 110.394 292.880
9896 9895 9899 1 116.431 292.880
9897 9896 9898 1 108.377 276.144
9901 9902 9903 1 116.182 669.440
9902 9903 9904 1 123.014 418.400
9902 9903 9907 1 117.665 292.880
9903 9904 9905 1 110.304 292.880
9903 9904 9906 1 109.909 292.880
9904 9903 9907 1 116.950 292.880
9905 9904 9906 1 108.464 276.144
9909 9910 9911 1 118.794 669.440
9910 9911 9912 1 123.066 418.400
9910 9911 9916 1 117.297 292.880
9911 9912 9913 1 112.574 669.440
9911 9912 9914 1 109.745 292.880
9911 9912 9915 1 110.254 292.880
9912 9911 9916 1 116.799 292.880
9913 9912 9914 1 107.865 292.880
9913 9912 9915 1 107.980 292.880
9914 9912 9915 1 108.297 276.144
9918 9919 9920 1 115.974 669.440
9919 9920 9921 1 122.748 418.400
9919 9920 9924 1 117.141 292.880
9920 9921 9922 1 109.799 292.880
9920 9921 9923 1 110.394 292.880
9921 9920 9924 1 116.431 292.880
9922 9921 9923 1 108.377 276.144
9926 9927 9928 1 116.182 669.440
9927 9928 9929 1 123.014 418.400
9927 9928 9932 1 117.665 292.880
9928 9929 9930 1 110.304 292.880
9928 9929 9931 1 109.909 292.880
9929 9928 9932 1 116.950 292.880
9930 9929 9931 1 108.464 276.144
9934 9935 9936 1 118.794 669.440
9935 9936 9937 1 123.066 418.400
9935 9936 9941 1 117.297 292.880
9936 9937 9938 1 112.574 669.440
9936 9937 9939 1 109.745 292.880
9936 9937 9940 1 110.254 292.880
9937 9936 9941 1 116.799 292.880
9938 9937 9939 1 107.865 292.880
9938 9937 9940 1 107.980 292.880
9939 9937 9940 1 108.297 276.144
9943 9944 9945 1 115.974 669.440
9944 9945 9946 1 122.748 418.400
9944 9945 9949 1 117.141 292.880
9945 9946 9947 1 109.799 292.880
9945 9946 9948 1 110.394 292.880
9946 9945 9949 1 116.431 292.880
9947 9946 9948 1 108.377 276.144
9951 9952 9953 1 116.182 669.440
9952 9953 9954 1 123.014 418.400
9952 9953 9957 1 117.665 292.880
9953 9954 9955 1 110.304 292.880
9953 9954 9956 1 109.909 292.880
9954 9953 9957 1 116.950 292.880
9955 9954 9956 1 108.464 276.144
9959 9960 9961 1 118.794 669.440
9960 9961 9962 1 123.066 418.400
9960 9961 9965 1 117.297 292.880
9961 9962 9963 1 109.745 292.880
9961 9962 9964 1 110.254 292.880
9962 9961 9965 1 116.799 292.880
9963 9962 9964 1 108.297 276.144
9967 9968 9969 1 115.974 669.440
9968 9969 9970 1 122.748 418.400
9968 9969 9973 1 117.141 292.880
9969 9970 9971 1 109.799 292.880
9969 9970 9972 1 110.394 292.880
9970 9969 9973 1 116.431 292.880
9971 9970 9972 1 108.377 276.144
9975 9976 9977 1 116.182 669.440
9976 9977 9978 1 123.014 418.400
9976 9977 9981 1 117.665 292.880
9977 9978 9979 1 110.304 292.880
9977 9978 9980 1 109.909 292.880
9978 9977 9981 1 116.950 292.880
9979 9978 9980 1 108.464 276.144
9983 9984 9985 1 118.794 669.440
9984 9985 9986 1 123.066 418.400
9984 9985 9990 1 117.297 292.880
9985 9986 9987 1 112.574 669.440
9985 9986 9988 1 109.745 292.880
9985 9986 9989 1 110.254 292.880
9986 9985 9990 1 116.799 292.880
9987 9986 9988 1 107.865 292.880
9987 9986 9989 1 107.980 292.880
9988 9986 9989 1 108.297 276.144
9992 9993 9994 1 115.974 669.440
9993 9994 9995 1 122.748 418.400
9993 9994 9998 1 117.141 292.880
9994 9995 9996 1 109.799 292.880
9994 9995 9997 1 110.394 292.880
9995 9994 9998 1 116.431 292.880
9996 9995 9997 1 108.377 276.144
10000 10001 10002 1 116.182 669.440
10001 10002 10003 1 123.014 418.400
10001 10002 10007 1 117.665 292.880
10002 10003 10004 1 112.146 669.440
10002 10003 10005 1 110.304 292.880
10002 10003 10006 1 109.909 292.880
10003 10002 10007 1 116.950 292.880
10004 10003 10005 1 108.147 292.880
10004 10003 10006 1 107.761 292.880
10005 10003 10006 1 108.464 276.144
10009 10010 10011 1 118.794 669.440
10010 10011 10012 1 123.066 418.400
10010 10011 10015 1 117.297 292.880
10011 10012 10013 1 109.745 292.880
10011 10012 10014 1 110.254 292.880
10012 10011 10015 1 116.799 292.880
10013 10012 10014 1 108.297 276.144
10017 10018 10019 1 115.974 669.440
10018 10019 10020 1 122.748 418.400
10018 10019 10023 1 117.141 292.880
10019 10020 10021 1 109.799 292.880
10019 10020 10022 1 110.394 292.880
10020 10019 10023 1 116.431 292.880
10021 10020 10022 1 108.377 276.144
10025 10026 10027 1 116.182 669.440
10026 10027 10028 1 123.014 418.400
10026 10027 10031 1 117.665 292.880
10027 10028 10029 1 110.304 292.880
10027 10028 10030 1 109.909 292.880
10028 10027 10031 1 116.950 292.880
10029 10028 10030 1 108.464 276.144
10033 10034 10035 1 118.794 669.440
10034 10035 10036 1 123.066 418.400
10034 10035 10040 1 117.297 292.880
10035 10036 10037 1 112.574 669.440
10035 10036 10038 1 109.745 292.880
10035 10036 10039 1 110.254 292.880
10036 10035 10040 1 116.799 292.880
10037 10036 10038 1 107.865 292.880
10037 10036 10039 1 107.980 292.880
10038 10036 10039 1 108.297 276.144
10042 10043 10044 1 115.974 669.440
10043 10044 10045 1 122.748 418.400
10043 10044 10048 1 117.141 292.880
10044 10045 10046 1 109.799 292.880
10044 10045 10047 1 110.394 292.880
10045 10044 10048 1 116.431 292.880
10046 10045 10047 1 108.377 276.144
10050 10051 10052 1 116.182 669.440
10051 10052 10053 1 123.014 418.400
10051 10052 10056 1 117.665 292.880
10052 10053 10054 1 110.304 292.880
10052 10053 10055 1 109.909 292.880
10053 10052 10056 1 116.950 292.880
10054 10053 10055 1 108.464 276.144
10058 10059 10060 1 118.794 669.440
10059 10060 10061 1 123.066 418.400
10059 10060 10064 1 117.297 292.880
10060 10061 10062 1 109.745 292.880
10060 10061 10063 1 110.254 292.880
10061 10060 10064 1 116.799 292.880
10062 10061 10063 1 108.297 276.144
10066 10067 10068 1 115.974 669.440
10067 10068 10069 1 122.748 418.400
10067 10068 10073 1 117.141 292.880
10068 10069 10070 1 112.203 669.440
10068 10069 10071 1 109.799 292.880
10068 10069 10072 1 110.394 292.880
10069 10068 10073 1 116.431 292.880
10070 10069 10071 1 107.812 292.880
10070 10069 10072 1 108.141 292.880
10071 10069 10072 1 108.377 276.144
10075 10076 10077 1 116.182 669.440
10076 10077 10078 1 123.014 418.400
10076 10077 10081 1 117.665 292.880
10077 10078 10079 1 110.304 292.880
10077 10078 10080 1 109.909 292.880
10078 10077 10081 1 116.950 292.880
10079 10078 10080 1 108.464 276.144
10083 10084 10085 1 118.794 669.440
10084 10085 10086 1 123.066 418.400
10084 10085 10089 1 117.297 292.880
10085 10086 10087 1 109.745 292.880
10085 10086 10088 1 110.254 292.880
10086 10085 10089 1 116.799 292.880
10087 10086 10088 1 108.297 276.144
10091 10092 10093 1 115.974 669.440
10092 10093 10094 1 122.748 418.400
10092 10093 10097 1 117.141 292.880
10093 10094 10095 1 109.799 292.880
10093 10094 10096 1 110.394 292.880
10094 10093 10097 1 116.431 292.880
10095 10094 10096 1 108.377 276.144
10099 10100 10101 1 116.182 669.440
10100 10101 10102 1 123.014 418.400
10100 10101 10105 1 117.665 292.880
10101 10102 10103 1 110.304 292.880
10101 10102 10104 1 109.909 292.880
10102 10101 10105 1 116.950 292.880
10103 10102 10104 1 108.464 276.144
10107 10108 10109 1 118.794 669.440
10108 10109 10110 1 123.066 418.400
10108 10109 10113 1 117.297 292.880
10109 10110 10111 1 109.745 292.880
10109 10110 10112 1 110.254 292.880
10110 10109 10113 1 116.799 292.880
10111 10110 10112 1 108.297 276.144
10115 10116 10117 1 115.974 669.440
10116 10117 10118 1 122.748 418.400
10116 10117 10122 1 117.141 292.880
10117 10118 10119 1 112.203 669.440
10117 10118 10120 1 109.799 292.880
10117 10118 10121 1 110.394 292.880
10118 10117 10122 1 116.431 292.880
10119 10118 10120 1 107.812 292.880
10119 10118 10121 1 108.141 292.880
10120 10118 10121 1 108.377 276.144
10124 10125 10126 1 116.182 669.440
10125 10126 10127 1 123.014 418.400
10125 10126 10130 1 117.665 292.880
10126 10127 10128 1 110.304 292.880
10126 10127 10129 1 109.909 292.880
10127 10126 10130 1 116.950 292.880
10128 10127 10129 1 108.464 276.144
10132 10133 10134 1 118.794 669.440
10133 10134 10135 1 123.066 418.400
10133 10134 10138 1 117.297 292.880
10134 10135 10136 1 109.745 292.880
10134 10135 10137 1 110.254 292.880
10135 10134 10138 1 116.799 292.880
10136 10135 10137 1 108.297 276.144
10140 10141 10142 1 115.974 669.440
10141 10142 10143 1 122.748 418.400
10141 10142 10146 1 117.141 292.880
10142 10143 10144 1 109.799 292.880
10142 10143 10145 1 110.394 292.880
10143 10142 10146 1 116.431 292.880
10144 10143 10145 1 108.377 276.144
10148 10149 10150 1 116.182 669.440
10149 10150 10151 1 123.014 418.400
10149 10150 10154 1 117.665 292.880
10150 10151 10152 1 110.304 292.880
10150 10151 10153 1 109.909 292.880
10151 10150 10154 1 116.950 292.880
10152 10151 10153 1 108.464 276.144
10156 10157 10158 1 118.794 669.440
10157 10158 10159 1 123.066 418.400
10157 10158 10162 1 117.297 292.880
10158 10159 10160 1 109.745 292.880
10158 10159 10161 1 110.254 292.880
10159 10158 10162 1 116.799 292.880
10160 10159 10161 1 108.297 276.144
10164 10165 10166 1 115.974 669.440
10165 10166 10167 1 122.748 418.400
10165 10166 10170 1 117.141 292.880
10166 10167 10168 1 109.799 292.880
10166 10167 10169 1 110.394 292.880
10167 10166 10170 1 116.431 292.880
10168 10167 10169 1 108.377 276.144
10172 10173 10174 1 116.182 669.440
10173 10174 10175 1 123.014 418.400
10173 10174 10178 1 117.665 292.880
10174 10175 10176 1 110.304 292.880
10174 10175 10177 1 109.909 292.880
10175 10174 10178 1 116.950 292.880
10176 10175 10177 1 108.464 276.144
10180 10181 10182 1 118.794 669.440
10181 10182 10183 1 123.066 418.400
10181 10182 10186 1 117.297 292.880
10182 10183 10184 1 109.745 292.880
10182 10183 10185 1 110.254 292.880
10183 10182 10186 1 116.799 292.880
10184 10183 10185 1 108.297 276.144
10188 10189 10190 1 115.974 669.440
10189 10190 10191 1 122.748 418.400
10189 10190 10194 1 117.141 292.880
10190 10191 10192 1 109.799 292.880
10190 10191 10193 1 110.394 292.880
10191 10190 10194 1 116.431 292.880
10192 10191 10193 1 108.377 276.144
10196 10197 10198 1 116.182 669.440
10197 10198 10199 1 123.014 418.400
10197 10198 10204 1 117.665 292.880
10198 10199 10200 1 112.146 669.440
10198 10199 10202 1 110.304 292.880
10198 10199 10203 1 109.909 292.880
10199 10198 10204 1 116.950 292.880
10199 10200 10201 1 107.577 460.240
10200 10199 10202 1 108.147 292.880
10200 10199 10203 1 107.761 292.880
10202 10199 10203 1 108.464 276.144
10206 10207 10208 1 118.794 669.440
10207 10208 10209 1 123.066 418.400
10207 10208 10212 1 117.297 292.880
10208 10209 10210 1 109.745 292.880
10208 10209 10211 1 110.254 292.880
10209 10208 10212 1 116.799 292.880
10210 10209 10211 1 108.297 276.144
10214 10215 10216 1 115.974 669.440
10215 10216 10217 1 122.748 418.400
10215 10216 10220 1 117.141 292.880
10216 10217 10218 1 109.799 292.880
10216 10217 10219 1 110.394 292.880
10217 10216 10220 1 116.431 292.880
10218 10217 10219 1 108.377 276.144
10222 10223 10224 1 116.182 669.440
10223 10224 10225 1 123.014 418.400
10223 10224 10230 1 117.665 292.880
10224 10225 10226 1 112.146 669.440
10224 10225 10228 1 110.304 292.880
10224 10225 10229 1 109.909 292.880
10225 10224 10230 1 116.950 292.880
10225 10226 10227 1 107.577 460.240
10226 10225 10228 1 108.147 292.880
10226 10225 10229 1 107.761 292.880
10228 10225 10229 1 108.464 276.144
10232 10233 10234 1 118.794 669.440
10233 10234 10235 1 123.066 418.400
10233 10234 10238 1 117.297 292.880
10234 10235 10236 1 109.745 292.880
10234 10235 10237 1 110.254 292.880
10235 10234 10238 1 116.799 292.880
10236 10235 10237 1 108.297 276.144
10240 10241 10242 1 115.974 669.440
10241 10242 10243 1 122.748 418.400
10241 10242 10246 1 117.141 292.880
10242 10243 10244 1 109.799 292.880
10242 10243 10245 1 110.394 292.880
10243 10242 10246 1 116.431 292.880
10244 10243 10245 1 108.377 276.144
10248 10249 10250 1 116.182 669.440
10249 10250 10251 1 123.014 418.400
10249 10250 10255 1 117.665 292.880
10250 10251 10252 1 112.146 669.440
10250 10251 10253 1 110.304 292.880
10250 10251 10254 1 109.909 292.880
10251 10250 10255 1 116.950 292.880
10252 10251 10253 1 108.147 292.880
10252 10251 10254 1 107.761 292.880
10253 10251 10254 1 108.464 276.144
10257 10258 10259 1 118.794 669.440
10258 10259 10260 1 123.066 418.400
10258 10259 10263 1 117.297 292.880
10259 10260 10261 1 109.745 292.880
10259 10260 10262 1 110.254 292.880
10260 10259 10263 1 116.799 292.880
10261 10260 10262 1 108.297 276.144
10265 10266 10267 1 115.974 669.440
10266 10267 10268 1 122.748 418.400
10266 10267 10271 1 117.141 292.880
10267 10268 10269 1 109.799 292.880
10267 10268 10270 1 110.394 292.880
10268 10267 10271 1 116.431 292.880
10269 10268 10270 1 108.377 276.144
10273 10274 10275 1 116.182 669.440
10274 10275 10276 1 123.014 418.400
10274 10275 10279 1 117.665 292.880
10275 10276 10277 1 110.304 292.880
10275 10276 10278 1 109.909 292.880
10276 10275 10279 1 116.950 292.880
10277 10276 10278 1 108.464 276.144
10281 10282 10283 1 118.794 669.440
10282 10283 10284 1 123.066 418.400
10282 10283 10287 1 117.297 292.880
10283 10284 10285 1 109.745 292.880
10283 10284 10286 1 110.254 292.880
10284 10283 10287 1 116.799 292.880
10285 10284 10286 1 108.297 276.144
10289 10290 10291 1 115.974 669.440
10290 10291 10292 1 122.748 418.400
10290 10291 10295 1 117.141 292.880
10291 10292 10293 1 109.799 292.880
10291 10292 10294 1 110.394 292.880
10292 10291 10295 1 116.431 292.880
10293 10292 10294 1 108.377 276.144
10297 10298 10299 1 116.182 669.440
10298 10299 10300 1 123.014 418.400
10298 10299 10303 1 117.665 292.880
10299 10300 10301 1 110.304 292.880
10299 10300 10302 1 109.909 292.880
10300 10299 10303 1 116.950 292.880
10301 10300 10302 1 108.464 276.144
10305 10306 10307 1 118.794 669.440
10306 10307 10308 1 123.066 418.400
10306 10307 10312 1 117.297 292.880
10307 10308 10309 1 112.574 669.440
10307 10308 10310 1 109.745 292.880
10307 10308 10311 1 110.254 292.880
10308 10307 10312 1 116.799 292.880
10309 10308 10310 1 107.865 292.880
10309 10308 10311 1 107.980 292.880
10310 10308 10311 1 108.297 276.144
10314 10315 10316 1 115.974 669.440
10315 10316 10317 1 122.748 418.400
10315 10316 10320 1 117.141 292.880
10316 10317 10318 1 109.799 292.880
10316 10317 10319 1 110.394 292.880
10317 10316 10320 1 116.431 292.880
10318 10317 10319 1 108.377 276.144
10322 10323 10324 1 116.182 669.440
10323 10324 10325 1 123.014 418.400
10323 10324 10328 1 117.665 292.880
10324 10325 10326 1 110.304 292.880
10324 10325 10327 1 109.909 292.880
10325 10324 10328 1 116.950 292.880
10326 10325 10327 1 108.464 276.144
10330 10331 10332 1 118.794 669.440
10331 10332 10333 1 123.066 418.400
10331 10332 10336 1 117.297 292.880
10332 10333 10334 1 109.745 292.880
10332 10333 10335 1 110.254 292.880
10333 10332 10336 1 116.799 292.880
10334 10333 10335 1 108.297 276.144
10338 10339 10340 1 115.974 669.440
10339 10340 10341 1 122.748 418.400
10339 10340 10344 1 117.141 292.880
10340 10341 10342 1 109.799 292.880
10340 10341 10343 1 110.394 292.880
10341 10340 10344 1 116.431 292.880
10342 10341 10343 1 108.377 276.144
10346 10347 10348 1 116.182 669.440
10347 10348 10349 1 123.014 418.400
10347 10348 10352 1 117.665 292.880
10348 10349 10350 1 110.304 292.880
10348 10349 10351 1 109.909 292.880
10349 10348 10352 1 116.950 292.880
10350 10349 10351 1 108.464 276.144
10354 10355 10356 1 118.794 669.440
10355 10356 10357 1 123.066 418.400
10355 10356 10361 1 117.297 292.880
10356 10357 10358 1 112.574 669.440
10356 10357 10359 1 109.745 292.880
10356 10357 10360 1 110.254 292.880
10357 10356 10361 1 116.799 292.880
10358 10357 10359 1 107.865 292.880
10358 10357 10360 1 107.980 292.880
10359 10357 10360 1 108.297 276.144
10363 10364 10365 1 115.974 669.440
10364 10365 10366 1 122.748 418.400
10364 10365 10369 1 117.141 292.880
10365 10366 10367 1 109.799 292.880
10365 10366 10368 1 110.394 292.880
10366 10365 10369 1 116.431 292.880
10367 10366 10368 1 108.377 276.144
10371 10372 10373 1 116.182 669.440
10372 10373 10374 1 123.014 418.400
10372 10373 10377 1 117.665 292.880
10373 10374 10375 1 110.304 292.880
10373 10374 10376 1 109.909 292.880
10374 10373 10377 1 116.950 292.880
10375 10374 10376 1 108.464 276.144
10379 10380 10381 1 118.794 669.440
10380 10381 10382 1 123.066 418.400
10380 10381 10386 1 117.297 292.880
10381 10382 10383 1 112.574 669.440
10381 10382 10384 1 109.745 292.880
10381 10382 10385 1 110.254 292.880
10382 10381 10386 1 116.799 292.880
10383 10382 10384 1 107.865 292.880
10383 10382 10385 1 107.980 292.880
10384 10382 10385 1 108.297 276.144
10388 10389 10390 1 115.974 669.440
10389 10390 10391 1 122.748 418.400
10389 10390 10394 1 117.141 292.880
10390 10391 10392 1 109.799 292.880
10390 10391 10393 1 110.394 292.880
10391 10390 10394 1 116.431 292.880
10392 10391 10393 1 108.377 276.144
10396 10397 10398 1 116.182 669.440
10397 10398 10399 1 123.014 418.400
10397 10398 10404 1 117.665 292.880
10398 10399 10400 1 112.146 669.440
10398 10399 10402 1 110.304 292.880
10398 10399 10403 1 109.909 292.880
10399 10398 10404 1 116.950 292.880
10399 10400 10401 1 107.577 460.240
10400 10399 10402 1 108.147 292.880
10400 10399 10403 1 107.761 292.880
10402 10399 10403 1 108.464 276.144
10406 10407 10408 1 118.794 669.440
10407 10408 10409 1 123.066 418.400
10407 10408 10412 1 117.297 292.880
10408 10409 10410 1 109.745 292.880
10408 10409 10411 1 110.254 292.880
10409 10408 10412 1 116.799 292.880
10410 10409 10411 1 108.297 276.144
10414 10415 10416 1 115.974 669.440
10415 10416 10417 1 122.748 418.400
10415 10416 10420 1 117.141 292.880
10416 10417 10418 1 109.799 292.880
10416 10417 10419 1 110.394 292.880
10417 10416 10420 1 116.431 292.880
10418 10417 10419 1 108.377 276.144
10422 10423 10424 1 116.182 669.440
10423 10424 10425 1 123.014 418.400
10423 10424 10428 1 117.665 292.880
10424 10425 10426 1 110.304 292.880
10424 10425 10427 1 109.909 292.880
10425 10424 10428 1 116.950 292.880
10426 10425 10427 1 108.464 276.144
10430 10431 10432 1 118.794 669.440
10431 10432 10433 1 123.066 418.400
10431 10432 10437 1 117.297 292.880
10432 10433 10434 1 112.574 669.440
10432 10433 10435 1 109.745 292.880
10432 10433 10436 1 110.254 292.880
10433 10432 10437 1 116.799 292.880
10434 10433 10435 1 107.865 292.880
10434 10433 10436 1 107.980 292.880
10435 10433 10436 1 108.297 276.144
10439 10440 10441 1 115.974 669.440
10440 10441 10442 1 122.748 418.400
10440 10441 10447 1 117.141 292.880
10441 10442 10443 1 112.203 669.440
10441 10442 10445 1 109.799 292.880
10441 10442 10446 1 110.394 292.880
10442 10441 10447 1 116.431 292.880
10442 10443 10444 1 107.831 460.240
10443 10442 10445 1 107.812 292.880
10443 10442 10446 1 108.141 292.880
10445 10442 10446 1 108.377 276.144
10449 10450 10451 1 116.182 669.440
10450 10451 10452 1 123.014 418.400
10450 10451 10455 1 117.665 292.880
10451 10452 10453 1 110.304 292.880
10451 10452 10454 1 109.909 292.880
10452 10451 10455 1 116.950 292.880
10453 10452 10454 1 108.464 276.144
10457 10458 10459 1 118.794 669.440
10458 10459 10460 1 123.066 418.400
10458 10459 10463 1 117.297 292.880
10459 10460 10461 1 109.745 292.880
10459 10460 10462 1 110.254 292.880
10460 10459 10463 1 116.799 292.880
10461 10460 10462 1 108.297 276.144
10465 10466 10467 1 115.974 669.440
10466 10467 10468 1 122.748 418.400
10466 10467 10471 1 117.141 292.880
10467 10468 10469 1 109.799 292.880
10467 10468 10470 1 110.394 292.880
10468 10467 10471 1 116.431 292.880
10469 10468 10470 1 108.377 276.144
10473 10474 10475 1 116.182 669.440
10474 10475 10476 1 123.014 418.400
10474 10475 10479 1 117.665 292.880
10475 10476 10477 1 110.304 292.880
10475 10476 10478 1 109.909 292.880
10476 10475 10479 1 116.950 292.880
10477 10476 10478 1 108.464 276.144
10481 10482 10483 1 118.794 669.440
10482 10483 10484 1 123.066 418.400
10482 10483 10487 1 117.297 292.880
10483 10484 10485 1 109.745 292.880
10483 10484 10486 1 110.254 292.880
10484 10483 10487 1 116.799 292.880
10485 10484 10486 1 108.297 276.144
10489 10490 10491 1 115.974 669.440
10490 10491 10492 1 122.748 418.400
10490 10491 10495 1 117.141 292.880
10491 10492 10493 1 109.799 292.880
10491 10492 10494 1 110.394 292.880
10492 10491 10495 1 116.431 292.880
10493 10492 10494 1 108.377 276.144
10497 10498 10499 1 116.182 669.440
10498 10499 10500 1 123.014 418.400
10498 10499 10503 1 117.665 292.880
10499 10500 10501 1 110.304 292.880
10499 10500 10502 1 109.909 292.880
10500 10499 10503 1 116.950 292.880
10501 10500 10502 1 108.464 276.144
10505 10506 10507 1 118.794 669.440
10506 10507 10508 1 123.066 418.400
10506 10507 10511 1 117.297 292.880
10507 10508 10509 1 109.745 292.880
10507 10508 10510 1 110.254 292.880
10508 10507 10511 1 116.799 292.880
10509 10508 10510 1 108.297 276.144
10513 10514 10515 1 115.974 669.440
10514 10515 10516 1 122.748 418.400
10514 10515 10519 1 117.141 292.880
10515 10516 10517 1 109.799 292.880
10515 10516 10518 1 110.394 292.880
10516 10515 10519 1 116.431 292.880
10517 10516 10518 1 108.377 276.144
10521 10522 10523 1 116.182 669.440
10522 10523 10524 1 123.014 418.400
10522 10523 10528 1 117.665 292.880
10523 10524 10525 1 112.146 669.440
10523 10524 10526 1 110.304 292.880
10523 10524 10527 1 109.909 292.880
10524 10523 10528 1 116.950 292.880
10525 10524 10526 1 108.147 292.880
10525 10524 10527 1 107.761 292.880
10526 10524 10527 1 108.464 276.144
10530 10531 10532 1 118.794 669.440
10531 10532 10533 1 123.066 418.400
10531 10532 10536 1 117.297 292.880
10532 10533 10534 1 109.745 292.880
10532 10533 10535 1 110.254 292.880
10533 10532 10536 1 116.799 292.880
10534 10533 10535 1 108.297 276.144
10538 10539 10540 1 115.974 669.440
10539 10540 10541 1 122.748 418.400
10539 10540 10544 1 117.141 292.880
10540 10541 10542 1 109.799 292.880
10540 10541 10543 1 110.394 292.880
10541 10540 10544 1 116.431 292.880
10542 10541 10543 1 108.377 276.144
10546 10547 10548 1 116.182 669.440
10547 10548 10549 1 123.014 418.400
10547 10548 10552 1 117.665 292.880
10548 10549 10550 1 110.304 292.880
10548 10549 10551 1 109.909 292.880
10549 10548 10552 1 116.950 292.880
10550 10549 10551 1 108.464 276.144
10554 10555 10556 1 118.794 669.440
10555 10556 10557 1 123.066 418.400
10555 10556 10562 1 117.297 292.880
10556 10557 10558 1 112.574 669.440
10556 10557 10560 1 109.745 292.880
10556 10557 10561 1 110.254 292.880
10557 10556 10562 1 116.799 292.880
10557 10558 10559 1 108.806 460.240
10558 10557 10560 1 107.865 292.880
10558 10557 10561 1 107.980 292.880
10560 10557 10561 1 108.297 276.144
10564 10565 10566 1 115.974 669.440
10565 10566 10567 1 122.748 418.400
10565 10566 10572 1 117.141 292.880
10566 10567 10568 1 112.203 669.440
10566 10567 10570 1 109.799 292.880
10566 10567 10571 1 110.394 292.880
10567 10566 10572 1 116.431 292.880
10567 10568 10569 1 107.831 460.240
10568 10567 10570 1 107.812 292.880
10568 10567 10571 1 108.141 292.880
10570 10567 10571 1 108.377 276.144
10574 10575 10576 1 116.182 669.440
10575 10576 10577 1 123.014 418.400
10575 10576 10580 1 117.665 292.880
10576 10577 10578 1 110.304 292.880
10576 10577 10579 1 109.909 292.880
10577 10576 10580 1 116.950 292.880
10578 10577 10579 1 108.464 276.144
10582 10583 10584 1 118.794 669.440
10583 10584 10585 1 123.066 418.400
10583 10584 10588 1 117.297 292.880
10584 10585 10586 1 109.745 292.880
10584 10585 10587 1 110.254 292.880
10585 10584 10588 1 116.799 292.880
10586 10585 10587 1 108.297 276.144
10590 10591 10592 1 115.974 669.440
10591 10592 10593 1 122.748 418.400
10591 10592 10596 1 117.141 292.880
10592 10593 10594 1 109.799 292.880
10592 10593 10595 1 110.394 292.880
10593 10592 10596 1 116.431 292.880
10594 10593 10595 1 108.377 276.144
10598 10599 10600 1 116.182 669.440
10599 10600 10601 1 123.014 418.400
10599 10600 10604 1 117.665 292.880
10600 10601 10602 1 110.304 292.880
10600 10601 10603 1 109.909 292.880
10601 10600 10604 1 116.950 292.880
10602 10601 10603 1 108.464 276.144
10606 10607 10608 1 118.794 669.440
10607 10608 10609 1 123.066 418.400
10607 10608 10612 1 117.297 292.880
10608 10609 10610 1 109.745 292.880
10608 10609 10611 1 110.254 292.880
10609 10608 10612 1 116.799 292.880
10610 10609 10611 1 108.297 276.144
10614 10615 10616 1 115.974 669.440
10615 10616 10617 1 122.748 418.400
10615 10616 10620 1 117.141 292.880
10616 10617 10618 1 109.799 292.880
10616 10617 10619 1 110.394 292.880
10617 10616 10620 1 116.431 292.880
10618 10617 10619 1 108.377 276.144
10622 10623 10624 1 116.182 669.440
10623 10624 10625 1 123.014 418.400
10623 10624 10628 1 117.665 292.880
10624 10625 10626 1 110.304 292.880
10624 10625 10627 1 109.909 292.880
10625 10624 10628 1 116.950 292.880
10626 10625 10627 1 108.464 276.144
10630 10631 10632 1 118.794 669.440
10631 10632 10633 1 123.066 418.400
10631 10632 10638 1 117.297 292.880
10632 10633 10634 1 112.574 669.440
10632 10633 10636 1 109.745 292.880
10632 10633 10637 1 110.254 292.880
10633 10632 10638 1 116.799 292.880
10633 10634 10635 1 108.806 460.240
10634 10633 10636 1 107.865 292.880
10634 10633 10637 1 107.980 292.880
10636 10633 10637 1 108.297 276.144
10640 10641 10642 1 115.974 669.440
10641 10642 10643 1 122.748 418.400
10641 10642 10646 1 117.141 292.880
10642 10643 10644 1 109.799 292.880
10642 10643 10645 1 110.394 292.880
10643 10642 10646 1 116.431 292.880
10644 10643 10645 1 108.377 276.144
10648 10649 10650 1 116.182 669.440
10649 10650 10651 1 123.014 418.400
10649 10650 10654 1 117.665 292.880
10650 10651 10652 1 110.304 292.880
10650 10651 10653 1 109.909 292.880
10651 10650 10654 1 116.950 292.880
10652 10651 10653 1 108.464 276.144
10656 10657 10658 1 118.794 669.440
10657 10658 10659 1 123.066 418.400
10657 10658 10662 1 117.297 292.880
10658 10659 10660 1 109.745 292.880
10658 10659 10661 1 110.254 292.880
10659 10658 10662 1 116.799 292.880
10660 10659 10661 1 108.297 276.144
10664 10665 10666 1 115.974 669.440
10665 10666 10667 1 122.748 418.400
10665 10666 10670 1 117.141 292.880
10666 10667 10668 1 109.799 292.880
10666 10667 10669 1 110.394 292.880
10667 10666 10670 1 116.431 292.880
10668 10667 10669 1 108.377 276.144
10672 10673 10674 1 116.182 669.440
10673 10674 10675 1 123.014 418.400
10673 10674 10679 1 117.665 292.880
10674 10675 10676 1 112.146 669.440
10674 10675 10677 1 110.304 292.880
10674 10675 10678 1 109.909 292.880
10675 10674 10679 1 116.950 292.880
10676 10675 10677 1 108.147 292.880
10676 10675 10678 1 107.761 292.880
10677 10675 10678 1 108.464 276.144
10681 10682 10683 1 118.794 669.440
10682 10683 10684 1 123.066 418.400
10682 10683 10689 1 117.297 292.880
10683 10684 10685 1 112.574 669.440
10683 10684 10687 1 109.745 292.880
10683 10684 10688 1 110.254 292.880
10684 10683 10689 1 116.799 292.880
10684 10685 10686 1 108.806 460.240
10685 10684 10687 1 107.865 292.880
10685 10684 10688 1 107.980 292.880
10687 10684 10688 1 108.297 276.144
10691 10692 10693 1 115.974 669.440
10692 10693 10694 1 122.748 418.400
10692 10693 10698 1 117.141 292.880
10693 10694 10695 1 112.203 669.440
10693 10694 10696 1 109.799 292.880
10693 10694 10697 1 110.394 292.880
10694 10693 10698 1 116.431 292.880
10695 10694 10696 1 107.812 292.880
10695 10694 10697 1 108.141 292.880
10696 10694 10697 1 108.377 276.144
10700 10701 10702 1 116.182 669.440
10701 10702 10703 1 123.014 418.400
10701 10702 10706 1 117.665 292.880
10702 10703 10704 1 110.304 292.880
10702 10703 10705 1 109.909 292.880
10703 10702 10706 1 116.950 292.880
10704 10703 10705 1 108.464 276.144
10708 10709 10710 1 118.794 669.440
10709 10710 10711 1 123.066 418.400
10709 10710 10714 1 117.297 292.880
10710 10711 10712 1 109.745 292.880
10710 10711 10713 1 110.254 292.880
10711 10710 10714 1 116.799 292.880
10712 10711 10713 1 108.297 276.144
10716 10717 10718 1 115.974 669.440
10717 10718 10719 1 122.748 418.400
10717 10718 10722 1 117.141 292.880
10718 10719 10720 1 109.799 292.880
10718 10719 10721 1 110.394 292.880
10719 10718 10722 1 116.431 292.880
10720 10719 10721 1 108.377 276.144
10724 10725 10726 1 116.182 669.440
10725 10726 10727 1 123.014 418.400
10725 10726 10731 1 117.665 292.880
10726 10727 10728 1 112.146 669.440
10726 10727 10729 1 110.304 292.880
10726 10727 10730 1 109.909 292.880
10727 10726 10731 1 116.950 292.880
10728 10727 10729 1 108.147 292.880
10728 10727 10730 1 107.761 292.880
10729 10727 10730 1 108.464 276.144
10733 10734 10735 1 118.794 669.440
10734 10735 10736 1 123.066 418.400
10734 10735 10739 1 117.297 292.880
10735 10736 10737 1 109.745 292.880
10735 10736 10738 1 110.254 292.880
10736 10735 10739 1 116.799 292.880
10737 10736 10738 1 108.297 276.144
10741 10742 10743 1 115.974 669.440
10742 10743 10744 1 122.748 418.400
10742 10743 10747 1 117.141 292.880
10743 10744 10745 1 109.799 292.880
10743 10744 10746 1 110.394 292.880
10744 10743 10747 1 116.431 292.880
10745 10744 10746 1 108.377 276.144
10749 10750 10751 1 116.182 669.440
10750 10751 10752 1 123.014 418.400
10750 10751 10755 1 117.665 292.880
10751 10752 10753 1 110.304 292.880
10751 10752 10754 1 109.909 292.880
10752 10751 10755 1 116.950 292.880
10753 10752 10754 1 108.464 276.144
10757 10758 10759 1 118.794 669.440
10758 10759 10760 1 123.066 418.400
10758 10759 10763 1 117.297 292.880
10759 10760 10761 1 109.745 292.880
10759 10760 10762 1 110.254 292.880
10760 10759 10763 1 116.799 292.880
10761 10760 10762 1 108.297 276.144
10765 10766 10767 1 115.974 669.440
10766 10767 10768 1 122.748 418.400
10766 10767 10771 1 117.141 292.880
10767 10768 10769 1 109.799 292.880
10767 10768 10770 1 110.394 292.880
10768 10767 10771 1 116.431 292.880
10769 10768 10770 1 108.377 276.144
10773 10774 10775 1 116.182 669.440
10774 10775 10776 1 123.014 418.400
10774 10775 10779 1 117.665 292.880
10775 10776 10777 1 110.304 292.880
10775 10776 10778 1 109.909 292.880
10776 10775 10779 1 116.950 292.880
10777 10776 10778 1 108.464 276.144
10781 10782 10783 1 118.794 669.440
10782 10783 10784 1 123.066 418.400
10782 10783 10787 1 117.297 292.880
10783 10784 10785 1 109.745 292.880
10783 10784 10786 1 110.254 292.880
10784 10783 10787 1 116.799 292.880
10785 10784 10786 1 108.297 276.144
10789 10790 10791 1 115.974 669.440
10790 10791 10792 1 122.748 418.400
10790 10791 10795 1 117.141 292.880
10791 10792 10793 1 109.799 292.880
10791 10792 10794 1 110.394 292.880
10792 10791 10795 1 116.431 292.880
10793 10792 10794 1 108.377 276.144
10797 10798 10799 1 116.182 669.440
10798 10799 10800 1 123.014 418.400
10798 10799 10803 1 117.665 292.880
10799 10800 10801 1 110.304 292.880
10799 10800 10802 1 109.909 292.880
10800 10799 10803 1 116.950 292.880
10801 10800 10802 1 108.464 276.144
10805 10806 10807 1 118.794 669.440
10806 10807 10808 1 123.066 418.400
10806 10807 10812 1 117.297 292.880
10807 10808 10809 1 112.574 669.440
10807 10808 10810 1 109.745 292.880
10807 10808 10811 1 110.254 292.880
10808 10807 10812 1 116.799 292.880
10809 10808 10810 1 107.865 292.880
10809 10808 10811 1 107.980 292.880
10810 10808 10811 1 108.297 276.144
10814 10815 10816 1 115.974 669.440
10815 10816 10817 1 122.748 418.400
10815 10816 10821 1 117.141 292.880
10816 10817 10818 1 112.203 669.440
10816 10817 10819 1 109.799 292.880
10816 10817 10820 1 110.394 292.880
10817 10816 10821 1 116.431 292.880
10818 10817 10819 1 107.812 292.880
10818 10817 10820 1 108.141 292.880
10819 10817 10820 1 108.377 276.144
10823 10824 10825 1 116.182 669.440
10824 10825 10826 1 123.014 418.400
10824 10825 10829 1 117.665 292.880
10825 10826 10827 1 110.304 292.880
10825 10826 10828 1 109.909 292.880
10826 10825 10829 1 116.950 292.880
10827 10826 10828 1 108.464 276.144
10831 10832 10833 1 118.794 669.440
10832 10833 10834 1 123.066 418.400
10832 10833 10837 1 117.297 292.880
10833 10834 10835 1 109.745 292.880
10833 10834 10836 1 110.254 292.880
10834 10833 10837 1 116.799 292.880
10835 10834 10836 1 108.297 276.144
10839 10840 10841 1 115.974 669.440
10840 10841 10842 1 122.748 418.400
10840 10841 10847 1 117.141 292.880
10841 10842 10843 1 112.203 669.440
10841 10842 10845 1 109.799 292.880
10841 10842 10846 1 110.394 292.880
10842 10841 10847 1 116.431 292.880
10842 10843 10844 1 107.831 460.240
10843 10842 10845 1 107.812 292.880
10843 10842 10846 1 108.141 292.880
10845 10842 10846 1 108.377 276.144
10849 10850 10851 1 116.182 669.440
10850 10851 10852 1 123.014 418.400
10850 10851 10855 1 117.665 292.880
10851 10852 10853 1 110.304 292.880
10851 10852 10854 1 109.909 292.880
10852 10851 10855 1 116.950 292.880
10853 10852 10854 1 108.464 276.144
10857 10858 10859 1 118.794 669.440
10858 10859 10860 1 123.066 418.400
10858 10859 10863 1 117.297 292.880
10859 10860 10861 1 109.745 292.880
10859 10860 10862 1 110.254 292.880
10860 10859 10863 1 116.799 292.880
10861 10860 10862 1 108.297 276.144
10865 10866 10867 1 115.974 669.440
10866 10867 10868 1 122.748 418.400
10866 10867 10872 1 117.141 292.880
10867 10868 10869 1 112.203 669.440
10867 10868 10870 1 109.799 292.880
10867 10868 10871 1 110.394 292.880
10868 10867 10872 1 116.431 292.880
10869 10868 10870 1 107.812 292.880
10869 10868 10871 1 108.141 292.880
10870 10868 10871 1 108.377 276.144
10874 10875 10876 1 116.182 669.440
10875 10876 10877 1 123.014 418.400
10875 10876 10880 1 117.665 292.880
10876 10877 10878 1 110.304 292.880
10876 10877 10879 1 109.909 292.880
10877 10876 10880 1 116.950 292.880
10878 10877 10879 1 108.464 276.144
10882 10883 10884 1 118.794 669.440
10883 10884 10885 1 123.066 418.400
10883 10884 10890 1 117.297 292.880
10884 10885 10886 1 112.574 669.440
10884 10885 10888 1 109.745 292.880
10884 10885 10889 1 110.254 292.880
10885 10884 10890 1 116.799 292.880
10885 10886 10887 1 108.806 460.240
10886 10885 10888 1 107.865 292.880
10886 10885 10889 1 107.980 292.880
10888 10885 10889 1 108.297 276.144
10892 10893 10894 1 115.974 669.440
10893 10894 10895 1 122.748 418.400
10893 10894 10898 1 117.141 292.880
10894 10895 10896 1 109.799 292.880
10894 10895 10897 1 110.394 292.880
10895 10894 10898 1 116.431 292.880
10896 10895 10897 1 108.377 276.144
10900 10901 10902 1 116.182 669.440
10901 10902 10903 1 123.014 418.400
10901 10902 10906 1 117.665 292.880
10902 10903 10904 1 110.304 292.880
10902 10903 10905 1 109.909 292.880
10903 10902 10906 1 116.950 292.880
10904 10903 10905 1 108.464 276.144
10908 10909 10910 1 118.794 669.440
10909 10910 10911 1 123.066 418.400
10909 10910 10914 1 117.297 292.880
10910 10911 10912 1 109.745 292.880
10910 10911 10913 1 110.254 292.880
10911 10910 10914 1 116.799 292.880
10912 10911 10913 1 108.297 276.144
10916 10917 10918 1 115.974 669.440
10917 10918 10919 1 122.748 418.400
10917 10918 10922 1 117.141 292.880
10918 10919 10920 1 109.799 292.880
10918 10919 10921 1 110.394 292.880
10919 10918 10922 1 116.431 292.880
10920 10919 10921 1 108.377 276.144
10924 10925 10926 1 116.182 669.440
10925 10926 10927 1 123.014 418.400
10925 10926 10930 1 117.665 292.880
10926 10927 10928 1 110.304 292.880
10926 10927 10929 1 109.909 292.880
10927 10926 10930 1 116.950 292.880
10928 10927 10929 1 108.464 276.144
10932 10933 10934 1 118.794 669.440
10933 10934 10935 1 123.066 418.400
10933 10934 10938 1 117.297 292.880
10934 10935 10936 1 109.745 292.880
10934 10935 10937 1 110.254 292.880
10935 10934 10938 1 116.799 292.880
10936 10935 10937 1 108.297 276.144
10940 10941 10942 1 115.974 669.440
10941 10942 10943 1 122.748 418.400
10941 10942 10947 1 117.141 292.880
10942 10943 10944 1 112.203 669.440
10942 10943 10945 1 109.799 292.880
10942 10943 10946 1 110.394 292.880
10943 10942 10947 1 116.431 292.880
10944 10943 10945 1 107.812 292.880
10944 10943 10946 1 108.141 292.880
10945 10943 10946 1 108.377 276.144
10949 10950 10951 1 116.182 669.440
10950 10951 10952 1 123.014 418.400
10950 10951 10957 1 117.665 292.880
10951 10952 10953 1 112.146 669.440
10951 10952 10955 1 110.304 292.880
10951 10952 10956 1 109.909 292.880
10952 10951 10957 1 116.950 292.880
10952 10953 10954 1 107.577 460.240
10953 10952 10955 1 108.147 292.880
10953 10952 10956 1 107.761 292.880
10955 10952 10956 1 108.464 276.144
10959 10960 10961 1 118.794 669.440
10960 10961 10962 1 123.066 418.400
10960 10961 10965 1 117.297 292.880
10961 10962 10963 1 109.745 292.880
10961 10962 10964 1 110.254 292.880
10962 10961 10965 1 116.799 292.880
10963 10962 10964 1 108.297 276.144
10967 10968 10969 1 115.974 669.440
10968 10969 10970 1 122.748 418.400
10968 10969 10973 1 117.141 292.880
10969 10970 10971 1 109.799 292.880
10969 10970 10972 1 110.394 292.880
10970 10969 10973 1 116.431 292.880
10971 10970 10972 1 108.377 276.144
10975 10976 10977 1 116.182 669.440
10976 10977 10978 1 123.014 418.400
10976 10977 10981 1 117.665 292.880
10977 10978 10979 1 110.304 292.880
10977 10978 10980 1 109.909 292.880
10978 10977 10981 1 116.950 292.880
10979 10978 10980 1 108.464 276.144
10983 10984 10985 1 118.794 669.440
10984 10985 10986 1 123.066 418.400
10984 10985 10989 1 117.297 292.880
10985 10986 10987 1 109.745 292.880
10985 10986 10988 1 110.254 292.880
10986 10985 10989 1 116.799 292.880
10987 10986 10988 1 108.297 276.144
10991 10992 10993 1 115.974 669.440
10992 10993 10994 1 122.748 418.400
10992 10993 10997 1 117.141 292.880
10993 10994 10995 1 109.799 292.880
10993 10994 10996 1 110.394 292.880
10994 10993 10997 1 116.431 292.880
10995 10994 10996 1 108.377 276.144
10999 11000 11001 1 116.182 669.440
11000 11001 11002 1 123.014 418.400
11000 11001 11005 1 117.665 292.880
11001 11002 11003 1 110.304 292.880
11001 11002 11004 1 109.909 292.880
11002 11001 11005 1 116.950 292.880
11003 11002 11004 1 108.464 276.144
11007 11008 11009 1 118.794 669.440
11008 11009 11010 1 123.066 418.400
11008 11009 11014 1 117.297 292.880
11009 11010 11011 1 112.574 669.440
11009 11010 11012 1 109.745 292.880
11009 11010 11013 1 110.254 292.880
11010 11009 11014 1 116.799 292.880
11011 11010 11012 1 107.865 292.880
11011 11010 11013 1 107.980 292.880
11012 11010 11013 1 108.297 276.144
11016 11017 11018 1 115.974 669.440
11017 11018 11019 1 122.748 418.400
11017 11018 11022 1 117.141 292.880
11018 11019 11020 1 109.799 292.880
11018 11019 11021 1 110.394 292.880
11019 11018 11022 1 116.431 292.880
11020 11019 11021 1 108.377 276.144
11024 11025 11026 1 116.182 669.440
11025 11026 11027 1 123.014 418.400
11025 11026 11031 1 117.665 292.880
11026 11027 11028 1 112.146 669.440
11026 11027 11029 1 110.304 292.880
11026 11027 11030 1 109.909 292.880
11027 11026 11031 1 116.950 292.880
11028 11027 11029 1 108.147 292.880
11028 11027 11030 1 107.761 292.880
11029 11027 11030 1 108.464 276.144
11033 11034 11035 1 118.794 669.440
11034 11035 11036 1 123.066 418.400
11034 11035 11039 1 117.297 292.880
11035 11036 11037 1 109.745 292.880
11035 11036 11038 1 110.254 292.880
11036 11035 11039 1 116.799 292.880
11037 11036 11038 1 108.297 276.144
11041 11042 11043 1 115.974 669.440
11042 11043 11044 1 122.748 418.400
11042 11043 11047 1 117.141 292.880
11043 11044 11045 1 109.799 292.880
11043 11044 11046 1 110.394 292.880
11044 11043 11047 1 116.431 292.880
11045 11044 11046 1 108.377 276.144
11049 11050 11051 1 116.182 669.440
11050 11051 11052 1 123.014 418.400
11050 11051 11055 1 117.665 292.880
11051 11052 11053 1 110.304 292.880
11051 11052 11054 1 109.909 292.880
11052 11051 11055 1 116.950 292.880
11053 11052 11054 1 108.464 276.144
11057 11058 11059 1 118.794 669.440
11058 11059 11060 1 123.066 418.400
11058 11059 11063 1 117.297 292.880
11059 11060 11061 1 109.745 292.880
11059 11060 11062 1 110.254 292.880
11060 11059 11063 1 116.799 292.880
11061 11060 11062 1 108.297 276.144
11065 11066 11067 1 115.974 669.440
11066 11067 11068 1 122.748 418.400
11066 11067 11071 1 117.141 292.880
11067 11068 11069 1 109.799 292.880
11067 11068 11070 1 110.394 292.880
11068 11067 11071 1 116.431 292.880
11069 11068 11070 1 108.377 276.144
11073 11074 11075 1 116.182 669.440
11074 11075 11076 1 123.014 418.400
11074 11075 11079 1 117.665 292.880
11075 11076 11077 1 110.304 292.880
11075 11076 11078 1 109.909 292.880
11076 11075 11079 1 116.950 292.880
11077 11076 11078 1 108.464 276.144
11081 11082 11083 1 118.794 669.440
11082 11083 11084 1 123.066 418.400
11082 11083 11087 1 117.297 292.880
11083 11084 11085 1 109.745 292.880
11083 11084 11086 1 110.254 292.880
11084 11083 11087 1 116.799 292.880
11085 11084 11086 1 108.297 276.144
11089 11090 11091 1 115.974 669.440
11090 11091 11092 1 122.748 418.400
11090 11091 11095 1 117.141 292.880
11091 11092 11093 1 109.799 292.880
11091 11092 11094 1 110.394 292.880
11092 11091 11095 1 116.431 292.880
11093 11092 11094 1 108.377 276.144
11097 11098 11099 1 116.182 669.440
11098 11099 11100 1 123.014 418.400
11098 11099 11103 1 117.665 292.880
11099 11100 11101 1 110.304 292.880
11099 11100 11102 1 109.909 292.880
11100 11099 11103 1 116.950 292.880
11101 11100 11102 1 108.464 276.144
11105 11106 11107 1 118.794 669.440
11106 11107 11108 1 123.066 418.400
11106 11107 11111 1 117.297 292.880
11107 11108 11109 1 109.745 292.880
11107 11108 11110 1 110.254 292.880
11108 11107 11111 1 116.799 292.880
11109 11108 11110 1 108.297 276.144
11113 11114 11115 1 115.974 669.440
11114 11115 11116 1 122.748 418.400
11114 11115 11119 1 117.141 292.880
11115 11116 11117 1 109.799 292.880
11115 11116 11118 1 110.394 292.880
11116 11115 11119 1 116.431 292.880
11117 11116 11118 1 108.377 276.144
11121 11122 11123 1 116.182 669.440
11122 11123 11124 1 123.014 418.400
11122 11123 11127 1 117.665 292.880
11123 11124 11125 1 110.304 292.880
11123 11124 11126 1 109.909 292.880
11124 11123 11127 1 116.950 292.880
11125 11124 11126 1 108.464 276.144
11129 11130 11131 1 118.794 669.440
11130 11131 11132 1 123.066 418.400
11130 11131 11136 1 117.297 292.880
11131 11132 11133 1 112.574 669.440
11131 11132 11134 1 109.745 292.880
11131 11132 11135 1 110.254 292.880
11132 11131 11136 1 116.799 292.880
11133 11132 11134 1 107.865 292.880
11133 11132 11135 1 107.980 292.880
11134 11132 11135 1 108.297 276.144
11138 11139 11140 1 115.974 669.440
11139 11140 11141 1 122.748 418.400
11139 11140 11144 1 117.141 292.880
11140 11141 11142 1 109.799 292.880
11140 11141 11143 1 110.394 292.880
11141 11140 11144 1 116.431 292.880
11142 11141 11143 1 108.377 276.144
11146 11147 11148 1 116.182 669.440
11147 11148 11149 1 123.014 418.400
11147 11148 11153 1 117.665 292.880
11148 11149 11150 1 112.146 669.440
11148 11149 11151 1 110.304 292.880
11148 11149 11152 1 109.909 292.880
11149 11148 11153 1 116.950 292.880
11150 11149 11151 1 108.147 292.880
11150 11149 11152 1 107.761 292.880
11151 11149 11152 1 108.464 276.144
11155 11156 11157 1 118.794 669.440
11156 11157 11158 1 123.066 418.400
11156 11157 11161 1 117.297 292.880
11157 11158 11159 1 109.745 292.880
11157 11158 11160 1 110.254 292.880
11158 11157 11161 1 116.799 292.880
11159 11158 11160 1 108.297 276.144
11163 11164 11165 1 115.974 669.440
11164 11165 11166 1 122.748 418.400
11164 11165 11169 1 117.141 292.880
11165 11166 11167 1 109.799 292.880
11165 11166 11168 1 110.394 292.880
11166 11165 11169 1 116.431 292.880
11167 11166 11168 1 108.377 276.144
11171 11172 11173 1 116.182 669.440
11172 11173 11174 1 123.014 418.400
11172 11173 11179 1 117.665 292.880
11173 11174 11175 1 112.146 669.440
11173 11174 11177 1 110.304 292.880
11173 11174 11178 1 109.909 292.880
11174 11173 11179 1 116.950 292.880
11174 11175 11176 1 107.577 460.240
11175 11174 11177 1 108.147 292.880
11175 11174 11178 1 107.761 292.880
11177 11174 11178 1 108.464 276.144
11181 11182 11183 1 118.794 669.440
11182 11183 11184 1 123.066 418.400
11182 11183 11187 1 117.297 292.880
11183 11184 11185 1 109.745 292.880
11183 11184 11186 1 110.254 292.880
11184 11183 11187 1 116.799 292.880
11185 11184 11186 1 108.297 276.144
11189 11190 11191 1 115.974 669.440
11190 11191 11192 1 122.748 418.400
11190 11191 11195 1 117.141 292.880
11191 11192 11193 1 109.799 292.880
11191 11192 11194 1 110.394 292.880
11192 11191 11195 1 116.431 292.880
11193 11192 11194 1 108.377 276.144
11197 11198 11199 1 116.182 669.440
11198 11199 11200 1 123.014 418.400
11198 11199 11205 1 117.665 292.880
11199 11200 11201 1 112.146 669.440
11199 11200 11203 1 110.304 292.880
11199 11200 11204 1 109.909 292.880
11200 11199 11205 1 116.950 292.880
11200 11201 11202 1 107.577 460.240
11201 11200 11203 1 108.147 292.880
11201 11200 11204 1 107.761 292.880
11203 11200 11204 1 108.464 276.144
11207 11208 11209 1 118.794 669.440
11208 11209 11210 1 123.066 418.400
11208 11209 11215 1 117.297 292.880
11209 11210 11211 1 112.574 669.440
11209 11210 11213 1 109.745 292.880
11209 11210 11214 1 110.254 292.880
11210 11209 11215 1 116.799 292.880
11210 11211 11212 1 108.806 460.240
11211 11210 11213 1 107.865 292.880
11211 11210 11214 1 107.980 292.880
11213 11210 11214 1 108.297 276.144
11217 11218 11219 1 115.974 669.440
11218 11219 11220 1 122.748 418.400
11218 11219 11223 1 117.141 292.880
11219 11220 11221 1 109.799 292.880
11219 11220 11222 1 110.394 292.880
11220 11219 11223 1 116.431 292.880
11221 11220 11222 1 108.377 276.144
11225 11226 11227 1 116.182 669.440
11226 11227 11228 1 123.014 418.400
11226 11227 11232 1 117.665 292.880
11227 11228 11229 1 112.146 669.440
11227 11228 11230 1 110.304 292.880
11227 11228 11231 1 109.909 292.880
11228 11227 11232 1 116.950 292.880
11229 11228 11230 1 108.147 292.880
11229 11228 11231 1 107.761 292.880
11230 11228 11231 1 108.464 276.144
11234 11235 11236 1 118.794 669.440
11235 11236 11237 1 123.066 418.400
11235 11236 11242 1 117.297 292.880
11236 11237 11238 1 112.574 669.440
11236 11237 11240 1 109.745 292.880
11236 11237 11241 1 110.254 292.880
11237 11236 11242 1 116.799 292.880
11237 11238 11239 1 108.806 460.240
11238 11237 11240 1 107.865 292.880
11238 11237 11241 1 107.980 292.880
11240 11237 11241 1 108.297 276.144
11244 11245 11246 1 115.974 669.440
11245 11246 11247 1 122.748 418.400
11245 11246 11250 1 117.141 292.880
11246 11247 11248 1 109.799 292.880
11246 11247 11249 1 110.394 292.880
11247 11246 11250 1 116.431 292.880
11248 11247 11249 1 108.377 276.144
11252 11253 11254 1 116.182 669.440
11253 11254 11255 1 123.014 418.400
11253 11254 11258 1 117.665 292.880
11254 11255 11256 1 110.304 292.880
11254 11255 11257 1 109.909 292.880
11255 11254 11258 1 116.950 292.880
11256 11255 11257 1 108.464 276.144
11260 11261 11262 1 118.794 669.440
11261 11262 11263 1 123.066 418.400
11261 11262 11266 1 117.297 292.880
11262 11263 11264 1 109.745 292.880
11262 11263 11265 1 110.254 292.880
11263 11262 11266 1 116.799 292.880
11264 11263 11265 1 108.297 276.144
11268 11269 11270 1 115.974 669.440
11269 11270 11271 1 122.748 418.400
11269 11270 11274 1 117.141 292.880
11270 11271 11272 1 109.799 292.880
11270 11271 11273 1 110.394 292.880
11271 11270 11274 1 116.431 292.880
11272 11271 11273 1 108.377 276.144
11276 11277 11278 1 116.182 669.440
11277 11278 11279 1 123.014 418.400
11277 11278 11283 1 117.665 292.880
11278 11279 11280 1 112.146 669.440
11278 11279 11281 1 110.304 292.880
11278 11279 11282 1 109.909 292.880
11279 11278 11283 1 116.950 292.880
11280 11279 11281 1 108.147 292.880
11280 11279 11282 1 107.761 292.880
11281 11279 11282 1 108.464 276.144
11285 11286 11287 1 118.794 669.440
11286 11287 11288 1 123.066 418.400
11286 11287 11291 1 117.297 292.880
11287 11288 11289 1 109.745 292.880
11287 11288 11290 1 110.254 292.880
11288 11287 11291 1 116.799 292.880
11289 11288 11290 1 108.297 276.144
11293 11294 11295 1 115.974 669.440
11294 11295 11296 1 122.748 418.400
11294 11295 11299 1 117.141 292.880
11295 11296 11297 1 109.799 292.880
11295 11296 11298 1 110.394 292.880
11296 11295 11299 1 116.431 292.880
11297 11296 11298 1 108.377 276.144
11301 11302 11303 1 116.182 669.440
11302 11303 11304 1 123.014 418.400
11302 11303 11307 1 117.665 292.880
11303 11304 11305 1 110.304 292.880
11303 11304 11306 1 109.909 292.880
11304 11303 11307 1 116.950 292.880
11305 11304 11306 1 108.464 276.144
11309 11310 11311 1 118.794 669.440
11310 11311 11312 1 123.066 418.400
11310 11311 11315 1 117.297 292.880
11311 11312 11313 1 109.745 292.880
11311 11312 11314 1 110.254 292.880
11312 11311 11315 1 116.799 292.880
11313 11312 11314 1 108.297 276.144
11317 11318 11319 1 115.974 669.440
11318 11319 11320 1 122.748 418.400
11318 11319 11323 1 117.141 292.880
11319 11320 11321 1 109.799 292.880
11319 11320 11322 1 110.394 292.880
11320 11319 11323 1 116.431 292.880
11321 11320 11322 1 108.377 276.144
11325 11326 11327 1 116.182 669.440
11326 11327 11328 1 123.014 418.400
11326 11327 11331 1 117.665 292.880
11327 11328 11329 1 110.304 292.880
11327 11328 11330 1 109.909 292.880
11328 11327 11331 1 116.950 292.880
11329 11328 11330 1 108.464 276.144
11333 11334 11335 1 118.794 669.440
11334 11335 11336 1 123.066 418.400
11334 11335 11339 1 117.297 292.880
11335 11336 11337 1 109.745 292.880
11335 11336 11338 1 110.254 292.880
11336 11335 11339 1 116.799 292.880
11337 11336 11338 1 108.297 276.144
11341 11342 11343 1 115.974 669.440
11342 11343 11344 1 122.748 418.400
11342 11343 11347 1 117.141 292.880
11343 11344 11345 1 109.799 292.880
11343 11344 11346 1 110.394 292.880
11344 11343 11347 1 116.431 292.880
11345 11344 11346 1 108.377 276.144
11349 11350 11351 1 116.182 669.440
11350 11351 11352 1 123.014 418.400
11350 11351 11355 1 117.665 292.880
11351 11352 11353 1 110.304 292.880
11351 11352 11354 1 109.909 292.880
11352 11351 11355 1 116.950 292.880
11353 11352 11354 1 108.464 276.144
11357 11358 11359 1 118.794 669.440
11358 11359 11360 1 123.066 418.400
11358 11359 11363 1 117.297 292.880
11359 11360 11361 1 109.745 292.880
11359 11360 11362 1 110.254 292.880
11360 11359 11363 1 116.799 292.880
11361 11360 11362 1 108.297 276.144
11365 11366 11367 1 115.974 669.440
11366 11367 11368 1 122.748 418.400
11366 11367 11371 1 117.141 292.880
11367 11368 11369 1 109.799 292.880
11367 11368 11370 1 110.394 292.880
11368 11367 11371 1 116.431 292.880
11369 11368 11370 1 108.377 276.144
11373 11374 11375 1 116.182 669.440
11374 11375 11376 1 123.014 418.400
11374 11375 11379 1 117.665 292.880
11375 11376 11377 1 110.304 292.880
11375 11376 11378 1 109.909 292.880
11376 11375 11379 1 116.950 292.880
11377 11376 11378 1 108.464 276.144
11381 11382 11383 1 118.794 669.440
11382 11383 11384 1 123.066 418.400
11382 11383 11387 1 117.297 292.880
11383 11384 11385 1 109.745 292.880
11383 11384 11386 1 110.254 292.880
11384 11383 11387 1 116.799 292.880
11385 11384 11386 1 108.297 276.144
11389 11390 11391 1 115.974 669.440
11390 11391 11392 1 122.748 418.400
11390 11391 11395 1 117.141 292.880
11391 11392 11393 1 109.799 292.880
11391 11392 11394 1 110.394 292.880
11392 11391 11395 1 116.431 292.880
11393 11392 11394 1 108.377 276.144
11397 11398 11399 1 116.182 669.440
11398 11399 11400 1 123.014 418.400
11398 11399 11404 1 117.665 292.880
11399 11400 11401 1 112.146 669.440
11399 11400 11402 1 110.304 292.880
11399 11400 11403 1 109.909 292.880
11400 11399 11404 1 116.950 292.880
11401 11400 11402 1 108.147 292.880
11401 11400 11403 1 107.761 292.880
11402 11400 11403 1 108.464 276.144
11406 11407 11408 1 118.794 669.440
11407 11408 11409 1 123.066 418.400
11407 11408 11412 1 117.297 292.880
11408 11409 11410 1 109.745 292.880
11408 11409 11411 1 110.254 292.880
11409 11408 11412 1 116.799 292.880
11410 11409 11411 1 108.297 276.144
11414 11415 11416 1 115.974 669.440
11415 11416 11417 1 122.748 418.400
11415 11416 11420 1 117.141 292.880
11416 11417 11418 1 109.799 292.880
11416 11417 11419 1 110.394 292.880
11417 11416 11420 1 116.431 292.880
11418 11417 11419 1 108.377 276.144
11422 11423 11424 1 116.182 669.440
11423 11424 11425 1 123.014 418.400
11423 11424 11428 1 117.665 292.880
11424 11425 11426 1 110.304 292.880
11424 11425 11427 1 109.909 292.880
11425 11424 11428 1 116.950 292.880
11426 11425 11427 1 108.464 276.144
11430 11431 11432 1 118.794 669.440
11431 11432 11433 1 123.066 418.400
11431 11432 11436 1 117.297 292.880
11432 11433 11434 1 109.745 292.880
11432 11433 11435 1 110.254 292.880
11433 11432 11436 1 116.799 292.880
11434 11433 11435 1 108.297 276.144
11438 11439 11440 1 115.974 669.440
11439 11440 11441 1 122.748 418.400
11439 11440 11444 1 117.141 292.880
11440 11441 11442 1 109.799 292.880
11440 11441 11443 1 110.394 292.880
11441 11440 11444 1 116.431 292.880
11442 11441 11443 1 108.377 276.144
11446 11447 11448 1 116.182 669.440
11447 11448 11449 1 123.014 418.400
11447 11448 11452 1 117.665 292.880
11448 11449 11450 1 110.304 292.880
11448 11449 11451 1 109.909 292.880
11449 11448 11452 1 116.950 292.880
11450 11449 11451 1 108.464 276.144
11454 11455 11456 1 118.794 669.440
11455 11456 11457 1 123.066 418.400
11455 11456 11460 1 117.297 292.880
11456 11457 11458 1 109.745 292.880
11456 11457 11459 1 110.254 292.880
11457 11456 11460 1 116.799 292.880
11458 11457 11459 1 108.297 276.144
11462 11463 11464 1 115.974 669.440
11463 11464 11465 1 122.748 418.400
11463 11464 11468 1 117.141 292.880
11464 11465 11466 1 109.799 292.880
11464 11465 11467 1 110.394 292.880
11465 11464 11468 1 116.431 292.880
11466 11465 11467 1 108.377 276.144
11470 11471 11472 1 116.182 669.440
11471 11472 11473 1 123.014 418.400
11471 11472 11478 1 117.665 292.880
11472 11473 11474 1 112.146 669.440
11472 11473 11476 1 110.304 292.880
11472 11473 11477 1 109.909 292.880
11473 11472 11478 1 116.950 292.880
11473 11474 11475 1 107.577 460.240
11474 11473 11476 1 108.147 292.880
11474 11473 11477 1 107.761 292.880
11476 11473 11477 1 108.464 276.144
11480 11481 11482 1 118.794 669.440
11481 11482 11483 1 123.066 418.400
11481 11482 11486 1 117.297 292.880
11482 11483 11484 1 109.745 292.880
11482 11483 11485 1 110.254 292.880
11483 11482 11486 1 116.799 292.880
11484 11483 11485 1 108.297 276.144
11488 11489 11490 1 115.974 669.440
11489 11490 11491 1 122.748 418.400
11489 11490 11494 1 117.141 292.880
11490 11491 11492 1 109.799 292.880
11490 11491 11493 1 110.394 292.880
11491 11490 11494 1 116.431 292.880
11492 11491 11493 1 108.377 276.144
11496 11497 11498 1 116.182 669.440
11497 11498 11499 1 123.014 418.400
11497 11498 11502 1 117.665 292.880
11498 11499 11500 1 110.304 292.880
11498 11499 11501 1 109.909 292.880
11499 11498 11502 1 116.950 292.880
11500 11499 11501 1 108.464 276.144
11504 11505 11506 1 118.794 669.440
11505 11506 11507 1 123.066 418.400
11505 11506 11510 1 117.297 292.880
11506 11507 11508 1 109.745 292.880
11506 11507 11509 1 110.254 292.880
11507 11506 11510 1 116.799 292.880
11508 11507 11509 1 108.297 276.144
11512 11513 11514 1 115.974 669.440
11513 11514 11515 1 122.748 418.400
11513 11514 11518 1 117.141 292.880
11514 11515 11516 1 109.799 292.880
11514 11515 11517 1 110.394 292.880
11515 11514 11518 1 116.431 292.880
11516 11515 11517 1 108.377 276.144
11520 11521 11522 1 116.182 669.440
11521 11522 11523 1 123.014 418.400
11521 11522 11528 1 117.665 292.880
11522 11523 11524 1 112.146 669.440
11522 11523 11526 1 110.304 292.880
11522 11523 11527 1 109.909 292.880
11523 11522 11528 1 116.950 292.880
11523 11524 11525 1 107.577 460.240
11524 11523 11526 1 108.147 292.880
11524 11523 11527 1 107.761 292.880
11526 11523 11527 1 108.464 276.144
11530 11531 11532 1 118.794 669.440
11531 11532 11533 1 123.066 418.400
11531 11532 11538 1 117.297 292.880
11532 11533 11534 1 112.574 669.440
11532 11533 11536 1 109.745 292.880
11532 11533 11537 1 110.254 292.880
11533 11532 11538 1 116.799 292.880
11533 11534 11535 1 108.806 460.240
11534 11533 11536 1 107.865 292.880
11534 11533 11537 1 107.980 292.880
11536 11533 11537 1 108.297 276.144
11540 11541 11542 1 115.974 669.440
11541 11542 11543 1 122.748 418.400
11541 11542 11546 1 117.141 292.880
11542 11543 11544 1 109.799 292.880
11542 11543 11545 1 110.394 292.880
11543 11542 11546 1 116.431 292.880
11544 11543 11545 1 108.377 276.144
11548 11549 11550 1 116.182 669.440
11549 11550 11551 1 123.014 418.400
11549 11550 11554 1 117.665 292.880
11550 11551 11552 1 110.304 292.880
11550 11551 11553 1 109.909 292.880
11551 11550 11554 1 116.950 292.880
11552 11551 11553 1 108.464 276.144
11556 11557 11558 1 118.794 669.440
11557 11558 11559 1 123.066 418.400
11557 11558 11563 1 117.297 292.880
11558 11559 11560 1 112.574 669.440
11558 11559 11561 1 109.745 292.880
11558 11559 11562 1 110.254 292.880
11559 11558 11563 1 116.799 292.880
11560 11559 11561 1 107.865 292.880
11560 11559 11562 1 107.980 292.880
11561 11559 11562 1 108.297 276.144
11565 11566 11567 1 115.974 669.440
11566 11567 11568 1 122.748 418.400
11566 11567 11571 1 117.141 292.880
11567 11568 11569 1 109.799 292.880
11567 11568 11570 1 110.394 292.880
11568 11567 11571 1 116.431 292.880
11569 11568 11570 1 108.377 276.144
11573 11574 11575 1 116.182 669.440
11574 11575 11576 1 123.014 418.400
11574 11575 11579 1 117.665 292.880
11575 11576 11577 1 110.304 292.880
11575 11576 11578 1 109.909 292.880
11576 11575 11579 1 116.950 292.880
11577 11576 11578 1 108.464 276.144
11581 11582 11583 1 118.794 669.440
11582 11583 11584 1 123.066 418.400
11582 11583 11587 1 117.297 292.880
11583 11584 11585 1 109.745 292.880
11583 11584 11586 1 110.254 292.880
11584 11583 11587 1 116.799 292.880
11585 11584 11586 1 108.297 276.144
11589 11590 11591 1 115.974 669.440
11590 11591 11592 1 122.748 418.400
11590 11591 11595 1 117.141 292.880
11591 11592 11593 1 109.799 292.880
11591 11592 11594 1 110.394 292.880
11592 11591 11595 1 116.431 292.880
11593 11592 11594 1 108.377 276.144
11597 11598 11599 1 116.182 669.440
11598 11599 11600 1 123.014 418.400
11598 11599 11605 1 117.665 292.880
11599 11600 11601 1 112.146 669.440
11599 11600 11603 1 110.304 292.880
11599 11600 11604 1 109.909 292.880
11600 11599 11605 1 116.950 292.880
11600 11601 11602 1 107.577 460.240
11601 11600 11603 1 108.147 292.880
11601 11600 11604 1 107.761 292.880
11603 11600 11604 1 108.464 276.144
11607 11608 11609 1 118.794 669.440
11608 11609 11610 1 123.066 418.400
11608 11609 11613 1 117.297 292.880
11609 11610 11611 1 109.745 292.880
11609 11610 11612 1 110.254 292.880
11610 11609 11613 1 116.799 292.880
11611 11610 11612 1 108.297 276.144
11615 11616 11617 1 115.974 669.440
11616 11617 11618 1 122.748 418.400
11616 11617 11621 1 117.141 292.880
11617 11618 11619 1 109.799 292.880
11617 11618 11620 1 110.394 292.880
11618 11617 11621 1 116.431 292.880
11619 11618 11620 1 108.377 276.144
11623 11624 11625 1 116.182 669.440
11624 11625 11626 1 123.014 418.400
11624 11625 11629 1 117.665 292.880
11625 11626 11627 1 110.304 292.880
11625 11626 11628 1 109.909 292.880
11626 11625 11629 1 116.950 292.880
11627 11626 11628 1 108.464 276.144
11631 11632 11633 1 118.794 669.440
11632 11633 11634 1 123.066 418.400
11632 11633 11637 1 117.297 292.880
11633 11634 11635 1 109.745 292.880
11633 11634 11636 1 110.254 292.880
11634 11633 11637 1 116.799 292.880
11635 11634 11636 1 108.297 276.144
11639 11640 11641 1 115.974 669.440
11640 11641 11642 1 122.748 418.400
11640 11641 11645 1 117.141 292.880
11641 11642 11643 1 109.799 292.880
11641 11642 11644 1 110.394 292.880
11642 11641 11645 1 116.431 292.880
11643 11642 11644 1 108.377 276.144
11647 11648 11649 1 116.182 669.440
11648 11649 11650 1 123.014 418.400
11648 11649 11653 1 117.665 292.880
11649 11650 11651 1 110.304 292.880
11649 11650 11652 1 109.909 292.880
11650 11649 11653 1 116.950 292.880
11651 11650 11652 1 108.464 276.144
11655 11656 11657 1 118.794 669.440
11656 11657 11658 1 123.066 418.400
11656 11657 11661 1 117.297 292.880
11657 11658 11659 1 109.745 292.880
11657 11658 11660 1 110.254 292.880
11658 11657 11661 1 116.799 292.880
11659 11658 11660 1 108.297 276.144
11663 11664 11665 1 115.974 669.440
11664 11665 11666 1 122.748 418.400
11664 11665 11671 1 117.141 292.880
11665 11666 11667 1 112.203 669.440
11665 11666 11669 1 109.799 292.880
11665 11666 11670 1 110.394 292.880
11666 11665 11671 1 116.431 292.880
11666 11667 11668 1 107.831 460.240
11667 11666 11669 1 107.812 292.880
11667 11666 11670 1 108.141 292.880
11669 11666 11670 1 108.377 276.144
11673 11674 11675 1 116.182 669.440
11674 11675 11676 1 123.014 418.400
11674 11675 11681 1 117.665 292.880
11675 11676 11677 1 112.146 669.440
11675 11676 11679 1 110.304 292.880
11675 11676 11680 1 109.909 292.880
11676 11675 11681 1 116.950 292.880
11676 11677 11678 1 107.577 460.240
11677 11676 11679 1 108.147 292.880
11677 11676 11680 1 107.761 292.880
11679 11676 11680 1 108.464 276.144
11683 11684 11685 1 118.794 669.440
11684 11685 11686 1 123.066 418.400
11684 11685 11689 1 117.297 292.880
11685 11686 11687 1 109.745 292.880
11685 11686 11688 1 110.254 292.880
11686 11685 11689 1 116.799 292.880
11687 11686 11688 1 108.297 276.144
11691 11692 11693 1 115.974 669.440
11692 11693 11694 1 122.748 418.400
11692 11693 11697 1 117.141 292.880
11693 11694 11695 1 109.799 292.880
11693 11694 11696 1 110.394 292.880
11694 11693 11697 1 116.431 292.880
11695 11694 11696 1 108.377 276.144
11699 11700 11701 1 116.182 669.440
11700 11701 11702 1 123.014 418.400
11700 11701 11705 1 117.665 292.880
11701 11702 11703 1 110.304 292.880
11701 11702 11704 1 109.909 292.880
11702 11701 11705 1 116.950 292.880
11703 11702 11704 1 108.464 276.144
11707 11708 11709 1 118.794 669.440
11708 11709 11710 1 123.066 418.400
11708 11709 11714 1 117.297 292.880
11709 11710 11711 1 112.574 669.440
11709 11710 11712 1 109.745 292.880
11709 11710 11713 1 110.254 292.880
11710 11709 11714 1 116.799 292.880
11711 11710 11712 1 107.865 292.880
11711 11710 11713 1 107.980 292.880
11712 11710 11713 1 108.297 276.144
11716 11717 11718 1 115.974 669.440
11717 11718 11719 1 122.748 418.400
11717 11718 11722 1 117.141 292.880
11718 11719 11720 1 109.799 292.880
11718 11719 11721 1 110.394 292.880
11719 11718 11722 1 116.431 292.880
11720 11719 11721 1 108.377 276.144
11724 11725 11726 1 116.182 669.440
11725 11726 11727 1 123.014 418.400
11725 11726 11730 1 117.665 292.880
11726 11727 11728 1 110.304 292.880
11726 11727 11729 1 109.909 292.880
11727 11726 11730 1 116.950 292.880
11728 11727 11729 1 108.464 276.144
11732 11733 11734 1 118.794 669.440
11733 11734 11735 1 123.066 418.400
11733 11734 11738 1 117.297 292.880
11734 11735 11736 1 109.745 292.880
11734 11735 11737 1 110.254 292.880
11735 11734 11738 1 116.799 292.880
11736 11735 11737 1 108.297 276.144
11740 11741 11742 1 115.974 669.440
11741 11742 11743 1 122.748 418.400
11741 11742 11746 1 117.141 292.880
11742 11743 11744 1 109.799 292.880
11742 11743 11745 1 110.394 292.880
11743 11742 11746 1 116.431 292.880
11744 11743 11745 1 108.377 276.144
11748 11749 11750 1 116.182 669.440
11749 11750 11751 1 123.014 418.400
11749 11750 11754 1 117.665 292.880
11750 11751 11752 1 110.304 292.880
11750 11751 11753 1 109.909 292.880
11751 11750 11754 1 116.950 292.880
11752 11751 11753 1 108.464 276.144
11756 11757 11758 1 118.794 669.440
11757 11758 11759 1 123.066 418.400
11757 11758 11762 1 117.297 292.880
11758 11759 11760 1 109.745 292.880
11758 11759 11761 1 110.254 292.880
11759 11758 11762 1 116.799 292.880
11760 11759 11761 1 108.297 276.144
11764 11765 11766 1 115.974 669.440
11765 11766 11767 1 122.748 418.400
11765 11766 11770 1 117.141 292.880
11766 11767 11768 1 109.799 292.880
11766 11767 11769 1 110.394 292.880
11767 11766 11770 1 116.431 292.880
11768 11767 11769 1 108.377 276.144
11772 11773 11774 1 116.182 669.440
11773 11774 11775 1 123.014 418.400
11773 11774 11778 1 117.665 292.880
11774 11775 11776 1 110.304 292.880
11774 11775 11777 1 109.909 292.880
11775 11774 11778 1 116.950 292.880
11776 11775 11777 1 108.464 276.144
11780 11781 11782 1 118.794 669.440
11781 11782 11783 1 123.066 418.400
11781 11782 11786 1 117.297 292.880
11782 11783 11784 1 109.745 292.880
11782 11783 11785 1 110.254 292.880
11783 11782 11786 1 116.799 292.880
11784 11783 11785 1 108.297 276.144
11788 11789 11790 1 115.974 669.440
11789 11790 11791 1 122.748 418.400
11789 11790 11795 1 117.141 292.880
11790 11791 11792 1 112.203 669.440
11790 11791 11793 1 109.799 292.880
11790 11791 11794 1 110.394 292.880
11791 11790 11795 1 116.431 292.880
11792 11791 11793 1 107.812 292.880
11792 11791 11794 1 108.141 292.880
11793 11791 11794 1 108.377 276.144
11797 11798 11799 1 116.182 669.440
11798 11799 11800 1 123.014 418.400
11798 11799 11803 1 117.665 292.880
11799 11800 11801 1 110.304 292.880
11799 11800 11802 1 109.909 292.880
11800 11799 11803 1 116.950 292.880
11801 11800 11802 1 108.464 276.144
11805 11806 11807 1 118.794 669.440
11806 11807 11808 1 123.066 418.400
11806 11807 11811 1 117.297 292.880
11807 11808 11809 1 109.745 292.880
11807 11808 11810 1 110.254 292.880
11808 11807 11811 1 116.799 292.880
11809 11808 11810 1 108.297 276.144
11813 11814 11815 1 115.974 669.440
11814 11815 11816 1 122.748 418.400
11814 11815 11819 1 117.141 292.880
11815 11816 11817 1 109.799 292.880
11815 11816 11818 1 110.394 292.880
11816 11815 11819 1 116.431 292.880
11817 11816 11818 1 108.377 276.144
11821 11822 11823 1 116.182 669.440
11822 11823 11824 1 123.014 418.400
11822 11823 11827 1 117.665 292.880
11823 11824 11825 1 110.304 292.880
11823 11824 11826 1 109.909 292.880
11824 11823 11827 1 116.950 292.880
11825 11824 11826 1 108.464 276.144
11829 11830 11831 1 118.794 669.440
11830 11831 11832 1 123.066 418.400
11830 11831 11836 1 117.297 292.880
11831 11832 11833 1 112.574 669.440
11831 11832 11834 1 109.745 292.880
11831 11832 11835 1 110.254 292.880
11832 11831 11836 1 116.799 292.880
11833 11832 11834 1 107.865 292.880
11833 11832 11835 1 107.980 292.880
11834 11832 11835 1 108.297 276.144
11838 11839 11840 1 115.974 669.440
11839 11840 11841 1 122.748 418.400
11839 11840 11844 1 117.141 292.880
11840 11841 11842 1 109.799 292.880
11840 11841 11843 1 110.394 292.880
11841 11840 11844 1 116.431 292.880
11842 11841 11843 1 108.377 276.144
11846 11847 11848 1 116.182 669.440
11847 11848 11849 1 123.014 418.400
11847 11848 11852 1 117.665 292.880
11848 11849 11850 1 110.304 292.880
11848 11849 11851 1 109.909 292.880
11849 11848 11852 1 116.950 292.880
11850 11849 11851 1 108.464 276.144
11854 11855 11856 1 118.794 669.440
11855 11856 11857 1 123.066 418.400
11855 11856 11861 1 117.297 292.880
11856 11857 11858 1 112.574 669.440
11856 11857 11859 1 109.745 292.880
11856 11857 11860 1 110.254 292.880
11857 11856 11861 1 116.799 292.880
11858 11857 11859 1 107.865 292.880
11858 11857 11860 1 107.980 292.880
11859 11857 11860 1 108.297 276.144
11863 11864 11865 1 115.974 669.440
11864 11865 11866 1 122.748 418.400
11864 11865 11869 1 117.141 292.880
11865 11866 11867 1 109.799 292.880
11865 11866 11868 1 110.394 292.880
11866 11865 11869 1 116.431 292.880
11867 11866 11868 1 108.377 276.144
11871 11872 11873 1 116.182 669.440
11872 11873 11874 1 123.014 418.400
11872 11873 11877 1 117.665 292.880
11873 11874 11875 1 110.304 292.880
11873 11874 11876 1 109.909 292.880
11874 11873 11877 1 116.950 292.880
11875 11874 11876 1 108.464 276.144
11879 11880 11881 1 118.794 669.440
11880 11881 11882 1 123.066 418.400
11880 11881 11885 1 117.297 292.880
11881 11882 11883 1 109.745 292.880
11881 11882 11884 1 110.254 292.880
11882 11881 11885 1 116.799 292.880
11883 11882 11884 1 108.297 276.144
11887 11888 11889 1 115.974 669.440
11888 11889 11890 1 122.748 418.400
11888 11889 11893 1 117.141 292.880
11889 11890 11891 1 109.799 292.880
11889 11890 11892 1 110.394 292.880
11890 11889 11893 1 116.431 292.880
11891 11890 11892 1 108.377 276.144
11895 11896 11897 1 116.182 669.440
11896 11897 11898 1 123.014 418.400
11896 11897 11901 1 117.665 292.880
11897 11898 11899 1 110.304 292.880
11897 11898 11900 1 109.909 292.880
11898 11897 11901 1 116.950 292.880
11899 11898 11900 1 108.464 276.144
11903 11904 11905 1 118.794 669.440
11904 11905 11906 1 123.066 418.400
11904 11905 11910 1 117.297 292.880
11905 11906 11907 1 112.574 669.440
11905 11906 11908 1 109.745 292.880
11905 11906 11909 1 110.254 292.880
11906 11905 11910 1 116.799 292.880
11907 11906 11908 1 107.865 292.880
11907 11906 11909 1 107.980 292.880
11908 11906 11909 1 108.297 276.144
11912 11913 11914 1 115.974 669.440
11913 11914 11915 1 122.748 418.400
11913 11914 11918 1 117.141 292.880
11914 11915 11916 1 109.799 292.880
11914 11915 11917 1 110.394 292.880
11915 11914 11918 1 116.431 292.880
11916 11915 11917 1 108.377 276.144
11920 11921 11922 1 116.182 669.440
11921 11922 11923 1 123.014 418.400
11921 11922 11926 1 117.665 292.880
11922 11923 11924 1 110.304 292.880
11922 11923 11925 1 109.909 292.880
11923 11922 11926 1 116.950 292.880
11924 11923 11925 1 108.464 276.144
11928 11929 11930 1 118.794 669.440
11929 11930 11931 1 123.066 418.400
11929 11930 11935 1 117.297 292.880
11930 11931 11932 1 112.574 669.440
11930 11931 11933 1 109.745 292.880
11930 11931 11934 1 110.254 292.880
11931 11930 11935 1 116.799 292.880
11932 11931 11933 1 107.865 292.880
11932 11931 11934 1 107.980 292.880
11933 11931 11934 1 108.297 276.144
11937 11938 11939 1 115.974 669.440
11938 11939 11940 1 122.748 418.400
11938 11939 11943 1 117.141 292.880
11939 11940 11941 1 109.799 292.880
11939 11940 11942 1 110.394 292.880
11940 11939 11943 1 116.431 292.880
11941 11940 11942 1 108.377 276.144
11945 11946 11947 1 116.182 669.440
11946 11947 11948 1 123.014 418.400
11946 11947 11951 1 117.665 292.880
11947 11948 11949 1 110.304 292.880
11947 11948 11950 1 109.909 292.880
11948 11947 11951 1 116.950 292.880
11949 11948 11950 1 108.464 276.144
11953 11954 11955 1 118.794 669.440
11954 11955 11956 1 123.066 418.400
11954 11955 11959 1 117.297 292.880
11955 11956 11957 1 109.745 292.880
11955 11956 11958 1 110.254 292.880
11956 11955 11959 1 116.799 292.880
11957 11956 11958 1 108.297 276.144
11961 11962 11963 1 115.974 669.440
11962 11963 11964 1 122.748 418.400
11962 11963 11967 1 117.141 292.880
11963 11964 11965 1 109.799 292.880
11963 11964 11966 1 110.394 292.880
11964 11963 11967 1 116.431 292.880
11965 11964 11966 1 108.377 276.144
11969 11970 11971 1 116.182 669.440
11970 11971 11972 1 123.014 418.400
11970 11971 11976 1 117.665 292.880
11971 11972 11973 1 112.146 669.440
11971 11972 11974 1 110.304 292.880
11971 11972 11975 1 109.909 292.880
11972 11971 11976 1 116.950 292.880
11973 11972 11974 1 108.147 292.880
11973 11972 11975 1 107.761 292.880
11974 11972 11975 1 108.464 276.144
11978 11979 11980 1 118.794 669.440
11979 11980 11981 1 123.066 418.400
11979 11980 11984 1 117.297 292.880
11980 11981 11982 1 109.745 292.880
11980 11981 11983 1 110.254 292.880
11981 11980 11984 1 116.799 292.880
11982 11981 11983 1 108.297 276.144
11986 11987 11988 1 115.974 669.440
11987 11988 11989 1 122.748 418.400
11987 11988 11994 1 117.141 292.880
11988 11989 11990 1 112.203 669.440
11988 11989 11992 1 109.799 292.880
11988 11989 11993 1 110.394 292.880
11989 11988 11994 1 116.431 292.880
11989 11990 11991 1 107.831 460.240
11990 11989 11992 1 107.812 292.880
11990 11989 11993 1 108.141 292.880
11992 11989 11993 1 108.377 276.144
11996 11997 11998 1 116.182 669.440
11997 11998 11999 1 123.014 418.400
11997 11998 12002 1 117.665 292.880
11998 11999 12000 1 110.304 292.880
11998 11999 12001 1 109.909 292.880
11999 11998 12002 1 116.950 292.880
12000 11999 12001 1 108.464 276.144
12004 12005 12006 1 118.794 669.440
12005 12006 12007 1 123.066 418.400
12005 12006 12012 1 117.297 292.880
12006 12007 12008 1 112.574 669.440
12006 12007 12010 1 109.745 292.880
12006 12007 12011 1 110.254 292.880
12007 12006 12012 1 116.799 292.880
12007 12008 12009 1 108.806 460.240
12008 12007 12010 1 107.865 292.880
12008 12007 12011 1 107.980 292.880
12010 12007 12011 1 108.297 276.144
12014 12015 12016 1 115.974 669.440
12015 12016 12017 1 122.748 418.400
12015 12016 12020 1 117.141 292.880
12016 12017 12018 1 109.799 292.880
12016 12017 12019 1 110.394 292.880
12017 12016 12020 1 116.431 292.880
12018 12017 12019 1 108.377 276.144
12022 12023 12024 1 116.182 669.440
12023 12024 12025 1 123.014 418.400
12023 12024 12028 1 117.665 292.880
12024 12025 12026 1 110.304 292.880
12024 12025 12027 1 109.909 292.880
12025 12024 12028 1 116.950 292.880
12026 12025 12027 1 108.464 276.144
12030 12031 12032 1 118.794 669.440
12031 12032 12033 1 123.066 418.400
12031 12032 12036 1 117.297 292.880
12032 12033 12034 1 109.745 292.880
12032 12033 12035 1 110.254 292.880
12033 12032 12036 1 116.799 292.880
12034 12033 12035 1 108.297 276.144
12038 12039 12040 1 115.974 669.440
12039 12040 12041 1 122.748 418.400
12039 12040 12044 1 117.141 292.880
12040 12041 12042 1 109.799 292.880
12040 12041 12043 1 110.394 292.880
12041 12040 12044 1 116.431 292.880
12042 12041 12043 1 108.377 276.144
12046 12047 12048 1 116.182 669.440
12047 12048 12049 1 123.014 418.400
12047 12048 12052 1 117.665 292.880
12048 12049 12050 1 110.304 292.880
12048 12049 12051 1 109.909 292.880
12049 12048 12052 1 116.950 292.880
12050 12049 12051 1 108.464 276.144
12054 12055 12056 1 118.794 669.440
12055 12056 12057 1 123.066 418.400
12055 12056 12060 1 117.297 292.880
12056 12057 12058 1 109.745 292.880
12056 12057 12059 1 110.254 292.880
12057 12056 12060 1 116.799 292.880
12058 12057 12059 1 108.297 276.144
12062 12063 12064 1 115.974 669.440
12063 12064 12065 1 122.748 418.400
12063 12064 12070 1 117.141 292.880
12064 12065 12066 1 112.203 669.440
12064 12065 12068 1 109.799 292.880
12064 12065 12069 1 110.394 292.880
12065 12064 12070 1 116.431 292.880
12065 12066 12067 1 107.831 460.240
12066 12065 12068 1 107.812 292.880
12066 12065 12069 1 108.141 292.880
12068 12065 12069 1 108.377 276.144
12072 12073 12074 1 116.182 669.440
12073 12074 12075 1 123.014 418.400
12073 12074 12078 1 117.665 292.880
12074 12075 12076 1 110.304 292.880
12074 12075 12077 1 109.909 292.880
12075 12074 12078 1 116.950 292.880
12076 12075 12077 1 108.464 276.144
12080 12081 12082 1 118.794 669.440
12081 12082 12083 1 123.066 418.400
12081 12082 12086 1 117.297 292.880
12082 12083 12084 1 109.745 292.880
12082 12083 12085 1 110.254 292.880
12083 12082 12086 1 116.799 292.880
12084 12083 12085 1 108.297 276.144
12088 12089 12090 1 115.974 669.440
12089 12090 12091 1 122.748 418.400
12089 12090 12094 1 117.141 292.880
12090 12091 12092 1 109.799 292.880
12090 12091 12093 1 110.394 292.880
12091 12090 12094 1 116.431 292.880
12092 12091 12093 1 108.377 276.144
12096 12097 12098 1 116.182 669.440
12097 12098 12099 1 123.014 418.400
12097 12098 12102 1 117.665 292.880
12098 12099 12100 1 110.304 292.880
12098 12099 12101 1 109.909 292.880
12099 12098 12102 1 116.950 292.880
12100 12099 12101 1 108.464 276.144
12104 12105 12106 1 118.794 669.440
12105 12106 12107 1 123.066 418.400
12105 12106 12110 1 117.297 292.880
12106 12107 12108 1 109.745 292.880
12106 12107 12109 1 110.254 292.880
12107 12106 12110 1 116.799 292.880
12108 12107 12109 1 108.297 276.144
12112 12113 12114 1 115.974 669.440
12113 12114 12115 1 122.748 418.400
12113 12114 12118 1 117.141 292.880
12114 12115 12116 1 109.799 292.880
12114 12115 12117 1 110.394 292.880
12115 12114 12118 1 116.431 292.880
12116 12115 12117 1 108.377 276.144
12120 12121 12122 1 116.182 669.440
12121 12122 12123 1 123.014 418.400
12121 12122 12126 1 117.665 292.880
12122 12123 12124 1 110.304 292.880
12122 12123 12125 1 109.909 292.880
12123 12122 12126 1 116.950 292.880
12124 12123 12125 1 108.464 276.144
12128 12129 12130 1 118.794 669.440
12129 12130 12131 1 123.066 418.400
12129 12130 12134 1 117.297 292.880
12130 12131 12132 1 109.745 292.880
12130 12131 12133 1 110.254 292.880
12131 12130 12134 1 116.799 292.880
12132 12131 12133 1 108.297 276.144
12136 12137 12138 1 115.974 669.440
12137 12138 12139 1 122.748 418.400
12137 12138 12142 1 117.141 292.880
12138 12139 12140 1 109.799 292.880
12138 12139 12141 1 110.394 292.880
12139 12138 12142 1 116.431 292.880
12140 12139 12141 1 108.377 276.144
12144 12145 12146 1 116.182 669.440
12145 12146 12147 1 123.014 418.400
12145 12146 12150 1 117.665 292.880
12146 12147 12148 1 110.304 292.880
12146 12147 12149 1 109.909 292.880
12147 12146 12150 1 116.950 292.880
12148 12147 12149 1 108.464 276.144
12152 12153 12154 1 118.794 669.440
12153 12154 12155 1 123.066 418.400
12153 12154 12158 1 117.297 292.880
12154 12155 12156 1 109.745 292.880
12154 12155 12157 1 110.254 292.880
12155 12154 12158 1 116.799 292.880
12156 12155 12157 1 108.297 276.144
12160 12161 12162 1 115.974 669.440
12161 12162 12163 1 122.748 418.400
12161 12162 12166 1 117.141 292.880
12162 12163 12164 1 109.799 292.880
12162 12163 12165 1 110.394 292.880
12163 12162 12166 1 116.431 292.880
12164 12163 12165 1 108.377 276.144
12168 12169 12170 1 116.182 669.440
12169 12170 12171 1 123.014 418.400
12169 12170 12174 1 117.665 292.880
12170 12171 12172 1 110.304 292.880
12170 12171 12173 1 109.909 292.880
12171 12170 12174 1 116.950 292.880
12172 12171 12173 1 108.464 276.144
12176 12177 12178 1 118.794 669.440
12177 12178 12179 1 123.066 418.400
12177 12178 12182 1 117.297 292.880
12178 12179 12180 1 109.745 292.880
12178 12179 12181 1 110.254 292.880
12179 12178 12182 1 116.799 292.880
12180 12179 12181 1 108.297 276.144
12184 12185 12186 1 115.974 669.440
12185 12186 12187 1 122.748 418.400
12185 12186 12192 1 117.141 292.880
12186 12187 12188 1 112.203 669.440
12186 12187 12190 1 109.799 292.880
12186 12187 12191 1 110.394 292.880
12187 12186 12192 1 116.431 292.880
12187 12188 12189 1 107.831 460.240
12188 12187 12190 1 107.812 292.880
12188 12187 12191 1 108.141 292.880
12190 12187 12191 1 108.377 276.144
12194 12195 12196 1 116.182 669.440
12195 12196 12197 1 123.014 418.400
12195 12196 12201 1 117.665 292.880
12196 12197 12198 1 112.146 669.440
12196 12197 12199 1 110.304 292.880
12196 12197 12200 1 109.909 292.880
12197 12196 12201 1 116.950 292.880
12198 12197 12199 1 108.147 292.880
12198 12197 12200 1 107.761 292.880
12199 12197 12200 1 108.464 276.144
12203 12204 12205 1 118.794 669.440
12204 12205 12206 1 123.066 418.400
12204 12205 12211 1 117.297 292.880
12205 12206 12207 1 112.574 669.440
12205 12206 12209 1 109.745 292.880
12205 12206 12210 1 110.254 292.880
12206 12205 12211 1 116.799 292.880
12206 12207 12208 1 108.806 460.240
12207 12206 12209 1 107.865 292.880
12207 12206 12210 1 107.980 292.880
12209 12206 12210 1 108.297 276.144
12213 12214 12215 1 115.974 669.440
12214 12215 12216 1 122.748 418.400
12214 12215 12219 1 117.141 292.880
12215 12216 12217 1 109.799 292.880
12215 12216 12218 1 110.394 292.880
12216 12215 12219 1 116.431 292.880
12217 12216 12218 1 108.377 276.144
12221 12222 12223 1 116.182 669.440
12222 12223 12224 1 123.014 418.400
12222 12223 12227 1 117.665 292.880
12223 12224 12225 1 110.304 292.880
12223 12224 12226 1 109.909 292.880
12224 12223 12227 1 116.950 292.880
12225 12224 12226 1 108.464 276.144
12229 12230 12231 1 118.794 669.440
12230 12231 12232 1 123.066 418.400
12230 12231 12235 1 117.297 292.880
12231 12232 12233 1 109.745 292.880
12231 12232 12234 1 110.254 292.880
12232 12231 12235 1 116.799 292.880
12233 12232 12234 1 108.297 276.144
12237 12238 12239 1 115.974 669.440
12238 12239 12240 1 122.748 418.400
12238 12239 12245 1 117.141 292.880
12239 12240 12241 1 112.203 669.440
12239 12240 12243 1 109.799 292.880
12239 12240 12244 1 110.394 292.880
12240 12239 12245 1 116.431 292.880
12240 12241 12242 1 107.831 460.240
12241 12240 12243 1 107.812 292.880
12241 12240 12244 1 108.141 292.880
12243 12240 12244 1 108.377 276.144
12247 12248 12249 1 116.182 669.440
12248 12249 12250 1 123.014 418.400
12248 12249 12253 1 117.665 292.880
12249 12250 12251 1 110.304 292.880
12249 12250 12252 1 109.909 292.880
12250 12249 12253 1 116.950 292.880
12251 12250 12252 1 108.464 276.144
12255 12256 12257 1 118.794 669.440
12256 12257 12258 1 123.066 418.400
12256 12257 12261 1 117.297 292.880
12257 12258 12259 1 109.745 292.880
12257 12258 12260 1 110.254 292.880
12258 12257 12261 1 116.799 292.880
12259 12258 12260 1 108.297 276.144
12263 12264 12265 1 115.974 669.440
12264 12265 12266 1 122.748 418.400
12264 12265 12269 1 117.141 292.880
12265 12266 12267 1 109.799 292.880
12265 12266 12268 1 110.394 292.880
12266 12265 12269 1 116.431 292.880
12267 12266 12268 1 108.377 276.144
12271 12272 12273 1 116.182 669.440
12272 12273 12274 1 123.014 418.400
12272 12273 12277 1 117.665 292.880
12273 12274 12275 1 110.304 292.880
12273 12274 12276 1 109.909 292.880
12274 12273 12277 1 116.950 292.880
12275 12274 12276 1 108.464 276.144
12279 12280 12281 1 118.794 669.440
12280 12281 12282 1 123.066 418.400
12280 12281 12285 1 117.297 292.880
12281 12282 12283 1 109.745 292.880
12281 12282 12284 1 110.254 292.880
12282 12281 12285 1 116.799 292.880
12283 12282 12284 1 108.297 276.144
12287 12288 12289 1 115.974 669.440
12288 12289 12290 1 122.748 418.400
12288 12289 12293 1 117.141 292.880
12289 12290 12291 1 109.799 292.880
12289 12290 12292 1 110.394 292.880
12290 12289 12293 1 116.431 292.880
12291 12290 12292 1 108.377 276.144
12295 12296 12297 1 116.182 669.440
12296 12297 12298 1 123.014 418.400
12296 12297 12301 1 117.665 292.880
12297 12298 12299 1 110.304 292.880
12297 12298 12300 1 109.909 292.880
12298 12297 12301 1 116.950 292.880
12299 12298 12300 1 108.464 276.144
12303 12304 12305 1 118.794 669.440
12304 12305 12306 1 123.066 418.400
12304 12305 12309 1 117.297 292.880
12305 12306 12307 1 109.745 292.880
12305 12306 12308 1 110.254 292.880
12306 12305 12309 1 116.799 292.880
12307 12306 12308 1 108.297 276.144
12311 12312 12313 1 115.974 669.440
12312 12313 12314 1 122.748 418.400
12312 12313 12317 1 117.141 292.880
12313 12314 12315 1 109.799 292.880
12313 12314 12316 1 110.394 292.880
12314 12313 12317 1 116.431 292.880
12315 12314 12316 1 108.377 276.144
12319 12320 12321 1 116.182 669.440
12320 12321 12322 1 123.014 418.400
12320 12321 12325 1 117.665 292.880
12321 12322 12323 1 110.304 292.880
12321 12322 12324 1 109.909 292.880
12322 12321 12325 1 116.950 292.880
12323 12322 12324 1 108.464 276.144
12327 12328 12329 1 118.794 669.440
12328 12329 12330 1 123.066 418.400
12328 12329 12333 1 117.297 292.880
12329 12330 12331 1 109.745 292.880
12329 12330 12332 1 110.254 292.880
12330 12329 12333 1 116.799 292.880
12331 12330 12332 1 108.297 276.144
12335 12336 12337 1 115.974 669.440
12336 12337 12338 1 122.748 418.400
12336 12337 12341 1 117.141 292.880
12337 12338 12339 1 109.799 292.880
12337 12338 12340 1 110.394 292.880
12338 12337 12341 1 116.431 292.880
12339 12338 12340 1 108.377 276.144
12343 12344 12345 1 116.182 669.440
12344 12345 12346 1 123.014 418.400
12344 12345 12349 1 117.665 292.880
12345 12346 12347 1 110.304 292.880
12345 12346 12348 1 109.909 292.880
12346 12345 12349 1 116.950 292.880
12347 12346 12348 1 108.464 276.144
12351 12352 12353 1 118.794 669.440
12352 12353 12354 1 123.066 418.400
12352 12353 12357 1 117.297 292.880
12353 12354 12355 1 109.745 292.880
12353 12354 12356 1 110.254 292.880
12354 12353 12357 1 116.799 292.880
12355 12354 12356 1 108.297 276.144
12359 12360 12361 1 115.974 669.440
12360 12361 12362 1 122.748 418.400
12360 12361 12365 1 117.141 292.880
12361 12362 12363 1 109.799 292.880
12361 12362 12364 1 110.394 292.880
12362 12361 12365 1 116.431 292.880
12363 12362 12364 1 108.377 276.144
12367 12368 12369 1 116.182 669.440
12368 12369 12370 1 123.014 418.400
12368 12369 12373 1 117.665 292.880
12369 12370 12371 1 110.304 292.880
12369 12370 12372 1 109.909 292.880
12370 12369 12373 1 116.950 292.880
12371 12370 12372 1 108.464 276.144
12375 12376 12377 1 118.794 669.440
12376 12377 12378 1 123.066 418.400
12376 12377 12381 1 117.297 292.880
12377 12378 12379 1 109.745 292.880
12377 12378 12380 1 110.254 292.880
12378 12377 12381 1 116.799 292.880
12379 12378 12380 1 108.297 276.144
12383 12384 12385 1 115.974 669.440
12384 12385 12386 1 122.748 418.400
12384 12385 12389 1 117.141 292.880
12385 12386 12387 1 109.799 292.880
12385 12386 12388 1 110.394 292.880
12386 12385 12389 1 116.431 292.880
12387 12386 12388 1 108.377 276.144
12391 12392 12393 1 116.182 669.440
12392 12393 12394 1 123.014 418.400
12392 12393 12397 1 117.665 292.880
12393 12394 12395 1 110.304 292.880
12393 12394 12396 1 109.909 292.880
12394 12393 12397 1 116.950 292.880
12395 12394 12396 1 108.464 276.144
12399 12400 12401 1 118.794 669.440
12400 12401 12402 1 123.066 418.400
12400 12401 12405 1 117.297 292.880
12401 12402 12403 1 109.745 292.880
12401 12402 12404 1 110.254 292.880
12402 12401 12405 1 116.799 292.880
12403 12402 12404 1 108.297 276.144
12407 12408 12409 1 115.974 669.440
12408 12409 12410 1 122.748 418.400
12408 12409 12413 1 117.141 292.880
12409 12410 12411 1 109.799 292.880
12409 12410 12412 1 110.394 292.880
12410 12409 12413 1 116.431 292.880
12411 12410 12412 1 108.377 276.144
12415 12416 12417 1 116.182 669.440
12416 12417 12418 1 123.014 418.400
12416 12417 12423 1 117.665 292.880
12417 12418 12419 1 112.146 669.440
12417 12418 12421 1 110.304 292.880
12417 12418 12422 1 109.909 292.880
12418 12417 12423 1 116.950 292.880
12418 12419 12420 1 107.577 460.240
12419 12418 12421 1 108.147 292.880
12419 12418 12422 1 107.761 292.880
12421 12418 12422 1 108.464 276.144
12425 12426 12427 1 118.794 669.440
12426 12427 12428 1 123.066 418.400
12426 12427 12431 1 117.297 292.880
12427 12428 12429 1 109.745 292.880
12427 12428 12430 1 110.254 292.880
12428 12427 12431 1 116.799 292.880
12429 12428 12430 1 108.297 276.144
12433 12434 12435 1 115.974 669.440
12434 12435 12436 1 122.748 418.400
12434 12435 12439 1 117.141 292.880
12435 12436 12437 1 109.799 292.880
12435 12436 12438 1 110.394 292.880
12436 12435 12439 1 116.431 292.880
12437 12436 12438 1 108.377 276.144
12441 12442 12443 1 116.182 669.440
12442 12443 12444 1 123.014 418.400
12442 12443 12447 1 117.665 292.880
12443 12444 12445 1 110.304 292.880
12443 12444 12446 1 109.909 292.880
12444 12443 12447 1 116.950 292.880
12445 12444 12446 1 108.464 276.144
12449 12450 12451 1 118.794 669.440
12450 12451 12452 1 123.066 418.400
12450 12451 12455 1 117.297 292.880
12451 12452 12453 1 109.745 292.880
12451 12452 12454 1 110.254 292.880
12452 12451 12455 1 116.799 292.880
12453 12452 12454 1 108.297 276.144
12457 12458 12459 1 115.974 669.440
12458 12459 12460 1 122.748 418.400
12458 12459 12463 1 117.141 292.880
12459 12460 12461 1 109.799 292.880
12459 12460 12462 1 110.394 292.880
12460 12459 12463 1 116.431 292.880
12461 12460 12462 1 108.377 276.144
12465 12466 12467 1 116.182 669.440
12466 12467 12468 1 123.014 418.400
12466 12467 12471 1 117.665 292.880
12467 12468 12469 1 110.304 292.880
12467 12468 12470 1 109.909 292.880
12468 12467 12471 1 116.950 292.880
12469 12468 12470 1 108.464 276.144
12473 12474 12475 1 118.794 669.440
12474 12475 12476 1 123.066 418.400
12474 12475 12479 1 117.297 292.880
12475 12476 12477 1 109.745 292.880
12475 12476 12478 1 110.254 292.880
12476 12475 12479 1 116.799 292.880
12477 12476 12478 1 108.297 276.144
12481 12482 12483 1 115.974 669.440
12482 12483 12484 1 122.748 418.400
12482 12483 12487 1 117.141 292.880
12483 12484 12485 1 109.799 292.880
12483 12484 12486 1 110.394 292.880
12484 12483 12487 1 116.431 292.880
12485 12484 12486 1 108.377 276.144
12489 12490 12491 1 116.182 669.440
12490 12491 12492 1 123.014 418.400
12490 12491 12497 1 117.665 292.880
12491 12492 12493 1 112.146 669.440
12491 12492 12495 1 110.304 292.880
12491 12492 12496 1 109.909 292.880
12492 12491 12497 1 116.950 292.880
12492 12493 12494 1 107.577 460.240
12493 12492 12495 1 108.147 292.880
12493 12492 12496 1 107.761 292.880
12495 12492 12496 1 108.464 276.144
12499 12500 12501 1 118.794 669.440
12500 12501 12502 1 123.066 418.400
12500 12501 12505 1 117.297 292.880
12501 12502 12503 1 109.745 292.880
12501 12502 12504 1 110.254 292.880
12502 12501 12505 1 116.799 292.880
12503 12502 12504 1 108.297 276.144
12507 12508 12509 1 115.974 669.440
12508 12509 12510 1 122.748 418.400
12508 12509 12513 1 117.141 292.880
12509 12510 12511 1 109.799 292.880
12509 12510 12512 1 110.394 292.880
12510 12509 12513 1 116.431 292.880
12511 12510 12512 1 108.377 276.144
12515 12516 12517 1 116.182 669.440
12516 12517 12518 1 123.014 418.400
12516 12517 12523 1 117.665 292.880
12517 12518 12519 1 112.146 669.440
12517 12518 12521 1 110.304 292.880
12517 12518 12522 1 109.909 292.880
12518 12517 12523 1 116.950 292.880
12518 12519 12520 1 107.577 460.240
12519 12518 12521 1 108.147 292.880
12519 12518 12522 1 107.761 292.880
12521 12518 12522 1 108.464 276.144
12525 12526 12527 1 118.794 669.440
12526 12527 12528 1 123.066 418.400
12526 12527 12531 1 117.297 292.880
12527 12528 12529 1 109.745 292.880
12527 12528 12530 1 110.254 292.880
12528 12527 12531 1 116.799 292.880
12529 12528 12530 1 108.297 276.144
12533 12534 12535 1 115.974 669.440
12534 12535 12536 1 122.748 418.400
12534 12535 12539 1 117.141 292.880
12535 12536 12537 1 109.799 292.880
12535 12536 12538 1 110.394 292.880
12536 12535 12539 1 116.431 292.880
12537 12536 12538 1 108.377 276.144
12541 12542 12543 1 116.182 669.440
12542 12543 12544 1 123.014 418.400
12542 12543 12547 1 117.665 292.880
12543 12544 12545 1 110.304 292.880
12543 12544 12546 1 109.909 292.880
12544 12543 12547 1 116.950 292.880
12545 12544 12546 1 108.464 276.144
12549 12550 12551 1 118.794 669.440
12550 12551 12552 1 123.066 418.400
12550 12551 12557 1 117.297 292.880
12551 12552 12553 1 112.574 669.440
12551 12552 12555 1 109.745 292.880
12551 12552 12556 1 110.254 292.880
12552 12551 12557 1 116.799 292.880
12552 12553 12554 1 108.806 460.240
12553 12552 12555 1 107.865 292.880
12553 12552 12556 1 107.980 292.880
12555 12552 12556 1 108.297 276.144
12559 12560 12561 1 115.974 669.440
12560 12561 12562 1 122.748 418.400
12560 12561 12565 1 117.141 292.880
12561 12562 12563 1 109.799 292.880
12561 12562 12564 1 110.394 292.880
12562 12561 12565 1 116.431 292.880
12563 12562 12564 1 108.377 276.144
12567 12568 12569 1 116.182 669.440
12568 12569 12570 1 123.014 418.400
12568 12569 12573 1 117.665 292.880
12569 12570 12571 1 110.304 292.880
12569 12570 12572 1 109.909 292.880
12570 12569 12573 1 116.950 292.880
12571 12570 12572 1 108.464 276.144
12575 12576 12577 1 118.794 669.440
12576 12577 12578 1 123.066 418.400
12576 12577 12581 1 117.297 292.880
12577 12578 12579 1 109.745 292.880
12577 12578 12580 1 110.254 292.880
12578 12577 12581 1 116.799 292.880
12579 12578 12580 1 108.297 276.144
12583 12584 12585 1 115.974 669.440
12584 12585 12586 1 122.748 418.400
12584 12585 12589 1 117.141 292.880
12585 12586 12587 1 109.799 292.880
12585 12586 12588 1 110.394 292.880
12586 12585 12589 1 116.431 292.880
12587 12586 12588 1 108.377 276.144
12591 12592 12593 1 116.182 669.440
12592 12593 12594 1 123.014 418.400
12592 12593 12597 1 117.665 292.880
12593 12594 12595 1 110.304 292.880
12593 12594 12596 1 109.909 292.880
12594 12593 12597 1 116.950 292.880
12595 12594 12596 1 108.464 276.144
12599 12600 12601 1 118.794 669.440
12600 12601 12602 1 123.066 418.400
12600 12601 12605 1 117.297 292.880
12601 12602 12603 1 109.745 292.880
12601 12602 12604 1 110.254 292.880
12602 12601 12605 1 116.799 292.880
12603 12602 12604 1 108.297 276.144
12607 12608 12609 1 115.974 669.440
12608 12609 12610 1 122.748 418.400
12608 12609 12613 1 117.141 292.880
12609 12610 12611 1 109.799 292.880
12609 12610 12612 1 110.394 292.880
12610 12609 12613 1 116.431 292.880
12611 12610 12612 1 108.377 276.144
12615 12616 12617 1 116.182 669.440
12616 12617 12618 1 123.014 418.400
12616 12617 12621 1 117.665 292.880
12617 12618 12619 1 110.304 292.880
12617 12618 12620 1 109.909 292.880
12618 12617 12621 1 116.950 292.880
12619 12618 12620 1 108.464 276.144
12623 12624 12625 1 118.794 669.440
12624 12625 12626 1 123.066 418.400
12624 12625 12629 1 117.297 292.880
12625 12626 12627 1 109.745 292.880
12625 12626 12628 1 110.254 292.880
12626 12625 12629 1 116.799 292.880
12627 12626 12628 1 108.297 276.144
12631 12632 12633 1 115.974 669.440
12632 12633 12634 1 122.748 418.400
12632 12633 12637 1 117.141 292.880
12633 12634 12635 1 109.799 292.880
12633 12634 12636 1 110.394 292.880
12634 12633 12637 1 116.431 292.880
12635 12634 12636 1 108.377 276.144
12639 12640 12641 1 116.182 669.440
12640 12641 12642 1 123.014 418.400
12640 12641 12645 1 117.665 292.880
12641 12642 12643 1 110.304 292.880
12641 12642 12644 1 109.909 292.880
12642 12641 12645 1 116.950 292.880
12643 12642 12644 1 108.464 276.144
12647 12648 12649 1 118.794 669.440
12648 12649 12650 1 123.066 418.400
12648 12649 12653 1 117.297 292.880
12649 12650 12651 1 109.745 292.880
12649 12650 12652 1 110.254 292.880
12650 12649 12653 1 116.799 292.880
12651 12650 12652 1 108.297 276.144
12655 12656 12657 1 115.974 669.440
12656 12657 12658 1 122.748 418.400
12656 12657 12661 1 117.141 292.880
12657 12658 12659 1 109.799 292.880
12657 12658 12660 1 110.394 292.880
12658 12657 12661 1 116.431 292.880
12659 12658 12660 1 108.377 276.144
12663 12664 12665 1 116.182 669.440
12664 12665 12666 1 123.014 418.400
12664 12665 12669 1 117.665 292.880
12665 12666 12667 1 110.304 292.880
12665 12666 12668 1 109.909 292.880
12666 12665 12669 1 116.950 292.880
12667 12666 12668 1 108.464 276.144
12671 12672 12673 1 118.794 669.440
12672 12673 12674 1 123.066 418.400
12672 12673 12679 1 117.297 292.880
12673 12674 12675 1 112.574 669.440
12673 12674 12677 1 109.745 292.880
12673 12674 12678 1 110.254 292.880
12674 12673 12679 1 116.799 292.880
12674 12675 12676 1 108.806 460.240
12675 12674 12677 1 107.865 292.880
12675 12674 12678 1 107.980 292.880
12677 12674 12678 1 108.297 276.144
12681 12682 12683 1 115.974 669.440
12682 12683 12684 1 122.748 418.400
12682 12683 12687 1 117.141 292.880
12683 12684 12685 1 109.799 292.880
12683 12684 12686 1 110.394 292.880
12684 12683 12687 1 116.431 292.880
12685 12684 12686 1 108.377 276.144
12689 12690 12691 1 116.182 669.440
12690 12691 12692 1 123.014 418.400
12690 12691 12695 1 117.665 292.880
12691 12692 12693 1 110.304 292.880
12691 12692 12694 1 109.909 292.880
12692 12691 12695 1 116.950 292.880
12693 12692 12694 1 108.464 276.144
12697 12698 12699 1 118.794 669.440
12698 12699 12700 1 123.066 418.400
12698 12699 12703 1 117.297 292.880
12699 12700 12701 1 109.745 292.880
12699 12700 12702 1 110.254 292.880
12700 12699 12703 1 116.799 292.880
12701 12700 12702 1 108.297 276.144
12705 12706 12707 1 115.974 669.440
12706 12707 12708 1 122.748 418.400
12706 12707 12711 1 117.141 292.880
12707 12708 12709 1 109.799 292.880
12707 12708 12710 1 110.394 292.880
12708 12707 12711 1 116.431 292.880
12709 12708 12710 1 108.377 276.144
12713 12714 12715 1 116.182 669.440
12714 12715 12716 1 123.014 418.400
12714 12715 12719 1 117.665 292.880
12715 12716 12717 1 110.304 292.880
12715 12716 12718 1 109.909 292.880
12716 12715 12719 1 116.950 292.880
12717 12716 12718 1 108.464 276.144
12721 12722 12723 1 118.794 669.440
12722 12723 12724 1 123.066 418.400
12722 12723 12727 1 117.297 292.880
12723 12724 12725 1 109.745 292.880
12723 12724 12726 1 110.254 292.880
12724 12723 12727 1 116.799 292.880
12725 12724 12726 1 108.297 276.144
12729 12730 12731 1 115.974 669.440
12730 12731 12732 1 122.748 418.400
12730 12731 12735 1 117.141 292.880
12731 12732 12733 1 109.799 292.880
12731 12732 12734 1 110.394 292.880
12732 12731 12735 1 116.431 292.880
12733 12732 12734 1 108.377 276.144
12737 12738 12739 1 116.182 669.440
12738 12739 12740 1 123.014 418.400
12738 12739 12743 1 117.665 292.880
12739 12740 12741 1 110.304 292.880
12739 12740 12742 1 109.909 292.880
12740 12739 12743 1 116.950 292.880
12741 12740 12742 1 108.464 276.144
12745 12746 12747 1 118.794 669.440
12746 12747 12748 1 123.066 418.400
12746 12747 12751 1 117.297 292.880
12747 12748 12749 1 109.745 292.880
12747 12748 12750 1 110.254 292.880
12748 12747 12751 1 116.799 292.880
12749 12748 12750 1 108.297 276.144
12753 12754 12755 1 115.974 669.440
12754 12755 12756 1 122.748 418.400
12754 12755 12759 1 117.141 292.880
12755 12756 12757 1 109.799 292.880
12755 12756 12758 1 110.394 292.880
12756 12755 12759 1 116.431 292.880
12757 12756 12758 1 108.377 276.144
12761 12762 12763 1 116.182 669.440
12762 12763 12764 1 123.014 418.400
12762 12763 12767 1 117.665 292.880
12763 12764 12765 1 110.304 292.880
12763 12764 12766 1 109.909 292.880
12764 12763 12767 1 116.950 292.880
12765 12764 12766 1 108.464 276.144
12769 12770 12771 1 118.794 669.440
12770 12771 12772 1 123.066 418.400
12770 12771 12775 1 117.297 292.880
12771 12772 12773 1 109.745 292.880
12771 12772 12774 1 110.254 292.880
12772 12771 12775 1 116.799 292.880
12773 12772 12774 1 108.297 276.144
12777 12778 12779 1 115.974 669.440
12778 12779 12780 1 122.748 418.400
12778 12779 12783 1 117.141 292.880
12779 12780 12781 1 109.799 292.880
12779 12780 12782 1 110.394 292.880
12780 12779 12783 1 116.431 292.880
12781 12780 12782 1 108.377 276.144
12785 12786 12787 1 116.182 669.440
12786 12787 12788 1 123.014 418.400
12786 12787 12791 1 117.665 292.880
12787 12788 12789 1 110.304 292.880
12787 12788 12790 1 109.909 292.880
12788 12787 12791 1 116.950 292.880
12789 12788 12790 1 108.464 276.144
12793 12794 12795 1 118.794 669.440
12794 12795 12796 1 123.066 418.400
12794 12795 12799 1 117.297 292.880
12795 12796 12797 1 109.745 292.880
12795 12796 12798 1 110.254 292.880
12796 12795 12799 1 116.799 292.880
12797 12796 12798 1 108.297 276.144
12801 12802 12803 1 115.974 669.440
12802 12803 12804 1 122.748 418.400
12802 12803 12807 1 117.141 292.880
12803 12804 12805 1 109.799 292.880
12803 12804 12806 1 110.394 292.880
12804 12803 12807 1 116.431 292.880
12805 12804 12806 1 108.377 276.144
12809 12810 12811 1 116.182 669.440
12810 12811 12812 1 123.014 418.400
12810 12811 12815 1 117.665 292.880
12811 12812 12813 1 110.304 292.880
12811 12812 12814 1 109.909 292.880
12812 12811 12815 1 116.950 292.880
12813 12812 12814 1 108.464 276.144
12817 12818 12819 1 118.794 669.440
12818 12819 12820 1 123.066 418.400
12818 12819 12823 1 117.297 292.880
12819 12820 12821 1 109.745 292.880
12819 12820 12822 1 110.254 292.880
12820 12819 12823 1 116.799 292.880
12821 12820 12822 1 108.297 276.144
12825 12826 12827 1 115.974 669.440
12826 12827 12828 1 122.748 418.400
12826 12827 12831 1 117.141 292.880
12827 12828 12829 1 109.799 292.880
12827 12828 12830 1 110.394 292.880
12828 12827 12831 1 116.431 292.880
12829 12828 12830 1 108.377 276.144
12833 12834 12835 1 116.182 669.440
12834 12835 12836 1 123.014 418.400
12834 12835 12841 1 117.665 292.880
12835 12836 12837 1 112.146 669.440
12835 12836 12839 1 110.304 292.880
12835 12836 12840 1 109.909 292.880
12836 12835 12841 1 116.950 292.880
12836 12837 12838 1 107.577 460.240
12837 12836 12839 1 108.147 292.880
12837 12836 12840 1 107.761 292.880
12839 12836 12840 1 108.464 276.144
12843 12844 12845 1 118.794 669.440
12844 12845 12846 1 123.066 418.400
12844 12845 12849 1 117.297 292.880
12845 12846 12847 1 109.745 292.880
12845 12846 12848 1 110.254 292.880
12846 12845 12849 1 116.799 292.880
12847 12846 12848 1 108.297 276.144
12851 12852 12853 1 115.974 669.440
12852 12853 12854 1 122.748 418.400
12852 12853 12857 1 117.141 292.880
12853 12854 12855 1 109.799 292.880
12853 12854 12856 1 110.394 292.880
12854 12853 12857 1 116.431 292.880
12855 12854 12856 1 108.377 276.144
12859 12860 12861 1 116.182 669.440
12860 12861 12862 1 123.014 418.400
12860 12861 12867 1 117.665 292.880
12861 12862 12863 1 112.146 669.440
12861 12862 12865 1 110.304 292.880
12861 12862 12866 1 109.909 292.880
12862 12861 12867 1 116.950 292.880
12862 12863 12864 1 107.577 460.240
12863 12862 12865 1 108.147 292.880
12863 12862 12866 1 107.761 292.880
12865 12862 12866 1 108.464 276.144
12869 12870 12871 1 118.794 669.440
12870 12871 12872 1 123.066 418.400
12870 12871 12877 1 117.297 292.880
12871 12872 12873 1 112.574 669.440
12871 12872 12875 1 109.745 292.880
12871 12872 12876 1 110.254 292.880
12872 12871 12877 1 116.799 292.880
12872 12873 12874 1 108.806 460.240
12873 12872 12875 1 107.865 292.880
12873 12872 12876 1 107.980 292.880
12875 12872 12876 1 108.297 276.144
12879 12880 12881 1 115.974 669.440
12880 12881 12882 1 122.748 418.400
12880 12881 12885 1 117.141 292.880
12881 12882 12883 1 109.799 292.880
12881 12882 12884 1 110.394 292.880
12882 12881 12885 1 116.431 292.880
12883 12882 12884 1 108.377 276.144
12887 12888 12889 1 116.182 669.440
12888 12889 12890 1 123.014 418.400
12888 12889 12893 1 117.665 292.880
12889 12890 12891 1 110.304 292.880
12889 12890 12892 1 109.909 292.880
12890 12889 12893 1 116.950 292.880
12891 12890 12892 1 108.464 276.144
12895 12896 12897 1 118.794 669.440
12896 12897 12898 1 123.066 418.400
12896 12897 12901 1 117.297 292.880
12897 12898 12899 1 109.745 292.880
12897 12898 12900 1 110.254 292.880
12898 12897 12901 1 116.799 292.880
12899 12898 12900 1 108.297 276.144
12903 12904 12905 1 115.974 669.440
12904 12905 12906 1 122.748 418.400
12904 12905 12911 1 117.141 292.880
12905 12906 12907 1 112.203 669.440
12905 12906 12909 1 109.799 292.880
12905 12906 12910 1 110.394 292.880
12906 12905 12911 1 116.431 292.880
12906 12907 12908 1 107.831 460.240
12907 12906 12909 1 107.812 292.880
12907 12906 12910 1 108.141 292.880
12909 12906 12910 1 108.377 276.144
12913 12914 12915 1 116.182 669.440
12914 12915 12916 1 123.014 418.400
12914 12915 12919 1 117.665 292.880
12915 12916 12917 1 110.304 292.880
12915 12916 12918 1 109.909 292.880
12916 12915 12919 1 116.950 292.880
12917 12916 12918 1 108.464 276.144
12921 12922 12923 1 118.794 669.440
12922 12923 12924 1 123.066 418.400
12922 12923 12927 1 117.297 292.880
12923 12924 12925 1 109.745 292.880
12923 12924 12926 1 110.254 292.880
12924 12923 12927 1 116.799 292.880
12925 12924 12926 1 108.297 276.144
12929 12930 12931 1 115.974 669.440
12930 12931 12932 1 122.748 418.400
12930 12931 12935 1 117.141 292.880
12931 12932 12933 1 109.799 292.880
12931 12932 12934 1 110.394 292.880
12932 12931 12935 1 116.431 292.880
12933 12932 12934 1 108.377 276.144
12937 12938 12939 1 116.182 669.440
12938 12939 12940 1 123.014 418.400
12938 12939 12943 1 117.665 292.880
12939 12940 12941 1 110.304 292.880
12939 12940 12942 1 109.909 292.880
12940 12939 12943 1 116.950 292.880
12941 12940 12942 1 108.464 276.144
12945 12946 12947 1 118.794 669.440
12946 12947 12948 1 123.066 418.400
12946 12947 12951 1 117.297 292.880
12947 12948 12949 1 109.745 292.880
12947 12948 12950 1 110.254 292.880
12948 12947 12951 1 116.799 292.880
12949 12948 12950 1 108.297 276.144
12953 12954 12955 1 115.974 669.440
12954 12955 12956 1 122.748 418.400
12954 12955 12959 1 117.141 292.880
12955 12956 12957 1 109.799 292.880
12955 12956 12958 1 110.394 292.880
12956 12955 12959 1 116.431 292.880
12957 12956 12958 1 108.377 276.144
12961 12962 12963 1 116.182 669.440
12962 12963 12964 1 123.014 418.400
12962 12963 12967 1 117.665 292.880
12963 12964 12965 1 110.304 292.880
12963 12964 12966 1 109.909 292.880
12964 12963 12967 1 116.950 292.880
12965 12964 12966 1 108.464 276.144
12969 12970 12971 1 118.794 669.440
12970 12971 12972 1 123.066 418.400
12970 12971 12975 1 117.297 292.880
12971 12972 12973 1 109.745 292.880
12971 12972 12974 1 110.254 292.880
12972 12971 12975 1 116.799 292.880
12973 12972 12974 1 108.297 276.144

[ pairs ]
2 5 1
2 9 1
3 6 1
3 7 1
3 8 1
9 6 1
9 7 1
9 8 1
11 14 1
11 18 1
12 15 1
12 16 1
12 17 1
18 15 1
18 16 1
18 17 1
20 23 1
20 27 1
21 24 1
21 25 1
21 26 1
27 24 1
27 25 1
27 26 1
29 32 1
29 36 1
30 33 1
30 34 1
30 35 1
36 33 1
36 34 1
36 35 1
38 41 1
38 46 1
39 42 1
39 44 1
39 45 1
40 43 1
44 43 1
45 43 1
46 42 1
46 44 1
46 45 1
48 51 1
48 56 1
49 52 1
49 54 1
49 55 1
50 53 1
54 53 1
55 53 1
56 52 1
56 54 1
56 55 1
58 61 1
58 65 1
59 62 1
59 63 1
59 64 1
65 62 1
65 63 1
65 64 1
67 70 1
67 74 1
68 71 1
68 72 1
68 73 1
74 71 1
74 72 1
74 73 1
76 79 1
76 83 1
77 80 1
77 81 1
77 82 1
83 80 1
83 81 1
83 82 1
85 88 1
85 92 1
86 89 1
86 90 1
86 91 1
92 89 1
92 90 1
92 91 1
94 97 1
94 102 1
95 98 1
95 100 1
95 101 1
96 99 1
100 99 1
101 99 1
102 98 1
102 100 1
102 101 1
104 107 1
104 111 1
105 108 1
105 109 1
105 110 1
111 108 1
111 109 1
111 110 1
113 116 1
113 120 1
114 117 1
114 118 1
114 119 1
120 117 1
120 118 1
120 119 1
122 125 1
122 129 1
123 126 1
123 127 1
123 128 1
129 126 1
129 127 1
129 128 1
131 134 1
131 138 1
132 135 1
132 136 1
132 137 1
138 135 1
138 136 1
138 137 1
140 143 1
140 147 1
141 144 1
141 145 1
141 146 1
147 144 1
147 145 1
147 146 1
149 152 1
149 156 1
150 153 1
150 154 1
150 155 1
156 153 1
156 154 1
156 155 1
158 161 1
158 165 1
159 162 1
159 163 1
159 164 1
165 162 1
165 163 1
165 164 1
167 170 1
167 174 1
168 171 1
168 172 1
168 173 1
174 171 1
174 172 1
174 173 1
176 179 1
176 183 1
177 180 1
177 181 1
177 182 1
183 180 1
183 181 1
183 182 1
185 188 1
185 192 1
186 189 1
186 190 1
186 191 1
192 189 1
192 190 1
192 191 1
194 197 1
194 201 1
195 198 1
195 199 1
195 200 1
201 198 1
201 199 1
201 200 1
203 206 1
203 210 1
204 207 1
204 208 1
204 209 1
210 207 1
210 208 1
210 209 1
212 215 1
212 220 1
213 216 1
213 218 1
213 219 1
214 217 1
218 217 1
219 217 1
220 216 1
220 218 1
220 219 1
222 225 1
222 229 1
223 226 1
223 227 1
223 228 1
229 226 1
229 227 1
229 228 1
231 234 1
231 238 1
232 235 1
232 236 1
232 237 1
238 235 1
238 236 1
238 237 1
240 243 1
240 247 1
241 244 1
241 245 1
241 246 1
247 244 1
247 245 1
247 246 1
249 252 1
249 257 1
250 253 1
250 255 1
250 256 1
251 254 1
255 254 1
256 254 1
257 253 1
257 255 1
257 256 1
259 262 1
259 266 1
260 263 1
260 264 1
260 265 1
266 263 1
266 264 1
266 265 1
268 271 1
268 275 1
269 272 1
269 273 1
269 274 1
275 272 1
275 273 1
275 274 1
277 280 1
277 284 1
278 281 1
278 282 1
278 283 1
284 281 1
284 282 1
284 283 1
286 289 1
286 293 1
287 290 1
287 291 1
287 292 1
293 290 1
293 291 1
293 292 1
295 298 1
295 302 1
296 299 1
296 300 1
296 301 1
302 299 1
302 300 1
302 301 1
304 307 1
304 311 1
305 308 1
305 309 1
305 310 1
311 308 1
311 309 1
311 310 1
313 316 1
313 320 1
314 317 1
314 318 1
314 319 1
320 317 1
320 318 1
320 319 1
322 325 1
322 329 1
323 326 1
323 327 1
323 328 1
329 326 1
329 327 1
329 328 1
331 334 1
331 338 1
332 335 1
332 336 1
332 337 1
338 335 1
338 336 1
338 337 1
340 343 1
340 348 1
341 344 1
341 346 1
341 347 1
342 345 1
346 345 1
347 345 1
348 344 1
348 346 1
348 347 1
350 353 1
350 357 1
351 354 1
351 355 1
351 356 1
357 354 1
357 355 1
357 356 1
359 362 1
359 366 1
360 363 1
360 364 1
360 365 1
366 363 1
366 364 1
366 365 1
368 371 1
368 376 1
369 372 1
369 374 1
369 375 1
370 373 1
374 373 1
375 373 1
376 372 1
376 374 1
376 375 1
378 381 1
378 385 1
379 382 1
379 383 1
379 384 1
385 382 1
385 383 1
385 384 1
387 390 1
387 394 1
388 391 1
388 392 1
388 393 1
394 391 1
394 392 1
394 393 1
396 399 1
396 404 1
397 400 1
397 402 1
397 403 1
398 401 1
402 401 1
403 401 1
404 400 1
404 402 1
404 403 1
406 409 1
406 413 1
407 410 1
407 411 1
407 412 1
413 410 1
413 411 1
413 412 1
415 418 1
415 422 1
416 419 1
416 420 1
416 421 1
422 419 1
422 420 1
422 421 1
424 427 1
424 431 1
425 428 1
425 429 1
425 430 1
431 428 1
431 429 1
431 430 1
433 436 1
433 440 1
434 437 1
434 438 1
434 439 1
440 437 1
440 438 1
440 439 1
442 445 1
442 449 1
443 446 1
443 447 1
443 448 1
449 446 1
449 447 1
449 448 1
451 454 1
451 458 1
452 455 1
452 456 1
452 457 1
458 455 1
458 456 1
458 457 1
460 463 1
460 467 1
461 464 1
461 465 1
461 466 1
467 464 1
467 465 1
467 466 1
469 472 1
469 476 1
470 473 1
470 474 1
470 475 1
476 473 1
476 474 1
476 475 1
478 481 1
478 485 1
479 482 1
479 483 1
479 484 1
485 482 1
485 483 1
485 484 1
487 490 1
487 494 1
488 491 1
488 492 1
488 493 1
494 491 1
494 492 1
494 493 1
496 499 1
496 503 1
497 500 1
497 501 1
497 502 1
503 500 1
503 501 1
503 502 1
505 508 1
505 512 1
506 509 1
506 510 1
506 511 1
512 509 1
512 510 1
512 511 1
514 517 1
514 521 1
515 518 1
515 519 1
515 520 1
521 518 1
521 519 1
521 520 1
523 526 1
523 529 1
524 527 1
524 528 1
529 527 1
529 528 1
531 534 1
531 538 1
532 535 1
532 536 1
532 537 1
538 535 1
538 536 1
538 537 1
540 543 1
540 547 1
541 544 1
541 545 1
541 546 1
547 544 1
547 545 1
547 546 1
549 552 1
549 556 1
550 553 1
550 554 1
550 555 1
556 553 1
556 554 1
556 555 1
558 561 1
558 566 1
559 562 1
559 564 1
559 565 1
560 563 1
564 563 1
565 563 1
566 562 1
566 564 1
566 565 1
568 571 1
568 575 1
569 572 1
569 573 1
569 574 1
575 572 1
575 573 1
575 574 1
577 580 1
577 584 1
578 581 1
578 582 1
578 583 1
584 581 1
584 582 1
584 583 1
586 589 1
586 593 1
587 590 1
587 591 1
587 592 1
593 590 1
593 591 1
593 592 1
595 598 1
595 602 1
596 599 1
596 600 1
596 601 1
602 599 1
602 600 1
602 601 1
604 607 1
604 611 1
605 608 1
605 609 1
605 610 1
611 608 1
611 609 1
611 610 1
613 616 1
613 621 1
614 617 1
614 619 1
614 620 1
615 618 1
619 618 1
620 618 1
621 617 1
621 619 1
621 620 1
623 626 1
623 630 1
624 627 1
624 628 1
624 629 1
630 627 1
630 628 1
630 629 1
632 635 1
632 639 1
633 636 1
633 637 1
633 638 1
639 636 1
639 637 1
639 638 1
641 644 1
641 648 1
642 645 1
642 646 1
642 647 1
648 645 1
648 646 1
648 647 1
650 653 1
650 657 1
651 654 1
651 655 1
651 656 1
657 654 1
657 655 1
657 656 1
659 662 1
659 666 1
660 663 1
660 664 1
660 665 1
666 663 1
666 664 1
666 665 1
668 671 1
668 675 1
669 672 1
669 673 1
669 674 1
675 672 1
675 673 1
675 674 1
677 680 1
677 684 1
678 681 1
678 682 1
678 683 1
684 681 1
684 682 1
684 683 1
686 689 1
686 694 1
687 690 1
687 692 1
687 693 1
688 691 1
692 691 1
693 691 1
694 690 1
694 692 1
694 693 1
696 699 1
696 703 1
697 700 1
697 701 1
697 702 1
703 700 1
703 701 1
703 702 1
705 708 1
705 712 1
706 709 1
706 710 1
706 711 1
712 709 1
712 710 1
712 711 1
714 717 1
714 721 1
715 718 1
715 719 1
715 720 1
721 718 1
721 719 1
721 720 1
723 726 1
723 729 1
724 727 1
724 728 1
729 727 1
729 728 1
731 734 1
731 738 1
732 735 1
732 736 1
732 737 1
738 735 1
738 736 1
738 737 1
740 743 1
740 747 1
741 744 1
741 745 1
741 746 1
747 744 1
747 745 1
747 746 1
749 752 1
749 757 1
750 753 1
750 755 1
750 756 1
751 754 1
755 754 1
756 754 1
757 753 1
757 755 1
757 756 1
759 762 1
759 767 1
760 763 1
760 765 1
760 766 1
761 764 1
765 764 1
766 764 1
767 763 1
767 765 1
767 766 1
769 772 1
769 776 1
770 773 1
770 774 1
770 775 1
776 773 1
776 774 1
776 775 1
778 781 1
778 785 1
779 782 1
779 783 1
779 784 1
785 782 1
785 783 1
785 784 1
787 790 1
787 794 1
788 791 1
788 792 1
788 793 1
794 791 1
794 792 1
794 793 1
796 799 1
796 802 1
797 800 1
797 801 1
802 800 1
802 801 1
804 807 1
804 811 1
805 808 1
805 809 1
805 810 1
811 808 1
811 809 1
811 810 1
813 816 1
813 820 1
814 817 1
814 818 1
814 819 1
820 817 1
820 818 1
820 819 1
822 825 1
822 829 1
823 826 1
823 827 1
823 828 1
829 826 1
829 827 1
829 828 1
831 834 1
831 838 1
832 835 1
832 836 1
832 837 1
838 835 1
838 836 1
838 837 1
840 843 1
840 847 1
841 844 1
841 845 1
841 846 1
847 844 1
847 845 1
847 846 1
849 852 1
849 856 1
850 853 1
850 854 1
850 855 1
856 853 1
856 854 1
856 855 1
858 861 1
858 865 1
859 862 1
859 863 1
859 864 1
865 862 1
865 863 1
865 864 1
867 870 1
867 874 1
868 871 1
868 872 1
868 873 1
874 871 1
874 872 1
874 873 1
876 879 1
876 882 1
877 880 1
877 881 1
882 880 1
882 881 1
884 887 1
884 891 1
885 888 1
885 889 1
885 890 1
891 888 1
891 889 1
891 890 1
893 896 1
893 901 1
894 897 1
894 899 1
894 900 1
895 898 1
899 898 1
900 898 1
901 897 1
901 899 1
901 900 1
903 906 1
903 910 1
904 907 1
904 908 1
904 909 1
910 907 1
910 908 1
910 909 1
912 915 1
912 919 1
913 916 1
913 917 1
913 918 1
919 916 1
919 917 1
919 918 1
921 924 1
921 928 1
922 925 1
922 926 1
922 927 1
928 925 1
928 926 1
928 927 1
930 933 1
930 937 1
931 934 1
931 935 1
931 936 1
937 934 1
937 935 1
937 936 1
939 942 1
939 946 1
940 943 1
940 944 1
940 945 1
946 943 1
946 944 1
946 945 1
948 951 1
948 955 1
949 952 1
949 953 1
949 954 1
955 952 1
955 953 1
955 954 1
957 960 1
957 964 1
958 961 1
958 962 1
958 963 1
964 961 1
964 962 1
964 963 1
966 969 1
966 974 1
967 970 1
967 972 1
967 973 1
968 971 1
972 971 1
973 971 1
974 970 1
974 972 1
974 973 1
976 979 1
976 984 1
977 980 1
977 982 1
977 983 1
978 981 1
982 981 1
983 981 1
984 980 1
984 982 1
984 983 1
986 989 1
986 994 1
987 990 1
987 992 1
987 993 1
988 991 1
992 991 1
993 991 1
994 990 1
994 992 1
994 993 1
996 999 1
996 1003 1
997 1000 1
997 1001 1
997 1002 1
1003 1000 1
1003 1001 1
1003 1002 1
1005 1008 1
1005 1012 1
1006 1009 1
1006 1010 1
1006 1011 1
1012 1009 1
1012 1010 1
1012 1011 1
1014 1017 1
1014 1021 1
1015 1018 1
1015 1019 1
1015 1020 1
1021 1018 1
1021 1019 1
1021 1020 1
1023 1026 1
1023 1030 1
1024 1027 1
1024 1028 1
1024 1029 1
1030 1027 1
1030 1028 1
1030 1029 1
1032 1035 1
1032 1039 1
1033 1036 1
1033 1037 1
1033 1038 1
1039 1036 1
1039 1037 1
1039 1038 1
1041 1044 1
1041 1048 1
1042 1045 1
1042 1046 1
1042 1047 1
1048 1045 1
1048 1046 1
1048 1047 1
1050 1053 1
1050 1057 1
1051 1054 1
1051 1055 1
1051 1056 1
1057 1054 1
1057 1055 1
1057 1056 1
1059 1062 1
1059 1066 1
1060 1063 1
1060 1064 1
1060 1065 1
1066 1063 1
1066 1064 1
1066 1065 1
1068 1071 1
1068 1076 1
1069 1072 1
1069 1074 1
1069 1075 1
1070 1073 1
1074 1073 1
1075 1073 1
1076 1072 1
1076 1074 1
1076 1075 1
1078 1081 1
1078 1085 1
1079 1082 1
1079 1083 1
1079 1084 1
1085 1082 1
1085 1083 1
1085 1084 1
1087 1090 1
1087 1095 1
1088 1091 1
1088 1093 1
1088 1094 1
1089 1092 1
1093 1092 1
1094 1092 1
1095 1091 1
1095 1093 1
1095 1094 1
1097 1100 1
1097 1104 1
1098 1101 1
1098 1102 1
1098 1103 1
1104 1101 1
1104 1102 1
1104 1103 1
1106 1109 1
1106 1112 1
1107 1110 1
1107 1111 1
1112 1110 1
1112 1111 1
1114 1117 1
1114 1121 1
1115 1118 1
1115 1119 1
1115 1120 1
1121 1118 1
1121 1119 1
1121 1120 1
1123 1126 1
1123 1130 1
1124 1127 1
1124 1128 1
1124 1129 1
1130 1127 1
1130 1128 1
1130 1129 1
1132 1135 1
1132 1139 1
1133 1136 1
1133 1137 1
1133 1138 1
1139 1136 1
1139 1137 1
1139 1138 1
1141 1144 1
1141 1148 1
1142 1145 1
1142 1146 1
1142 1147 1
1148 1145 1
1148 1146 1
1148 1147 1
1150 1153 1
1150 1157 1
1151 1154 1
1151 1155 1
1151 1156 1
1157 1154 1
1157 1155 1
1157 1156 1
1159 1162 1
1159 1166 1
1160 1163 1
1160 1164 1
1160 1165 1
1166 1163 1
1166 1164 1
1166 1165 1
1168 1171 1
1168 1175 1
1169 1172 1
1169 1173 1
1169 1174 1
1175 1172 1
1175 1173 1
1175 1174 1
1177 1180 1
1177 1184 1
1178 1181 1
1178 1182 1
1178 1183 1
1184 1181 1
1184 1182 1
1184 1183 1
1186 1189 1
1186 1193 1
1187 1190 1
1187 1191 1
1187 1192 1
1193 1190 1
1193 1191 1
1193 1192 1
1195 1198 1
1195 1202 1
1196 1199 1
1196 1200 1
1196 1201 1
1202 1199 1
1202 1200 1
1202 1201 1
1204 1207 1
1204 1210 1
1205 1208 1
1205 1209 1
1210 1208 1
1210 1209 1
1212 1215 1
1212 1219 1
1213 1216 1
1213 1217 1
1213 1218 1
1219 1216 1
1219 1217 1
1219 1218 1
1221 1224 1
1221 1228 1
1222 1225 1
1222 1226 1
1222 1227 1
1228 1225 1
1228 1226 1
1228 1227 1
1230 1233 1
1230 1237 1
1231 1234 1
1231 1235 1
1231 1236 1
1237 1234 1
1237 1235 1
1237 1236 1
1239 1242 1
1239 1246 1
1240 1243 1
1240 1244 1
1240 1245 1
1246 1243 1
1246 1244 1
1246 1245 1
1248 1251 1
1248 1255 1
1249 1252 1
1249 1253 1
1249 1254 1
1255 1252 1
1255 1253 1
1255 1254 1
1257 1260 1
1257 1263 1
1258 1261 1
1258 1262 1
1263 1261 1
1263 1262 1
1265 1268 1
1265 1272 1
1266 1269 1
1266 1270 1
1266 1271 1
1272 1269 1
1272 1270 1
1272 1271 1
1274 1277 1
1274 1282 1
1275 1278 1
1275 1280 1
1275 1281 1
1276 1279 1
1280 1279 1
1281 1279 1
1282 1278 1
1282 1280 1
1282 1281 1
1284 1287 1
1284 1291 1
1285 1288 1
1285 1289 1
1285 1290 1
1291 1288 1
1291 1289 1
1291 1290 1
1293 1296 1
1293 1300 1
1294 1297 1
1294 1298 1
1294 1299 1
1300 1297 1
1300 1298 1
1300 1299 1
1302 1305 1
1302 1309 1
1303 1306 1
1303 1307 1
1303 1308 1
1309 1306 1
1309 1307 1
1309 1308 1
1311 1314 1
1311 1318 1
1312 1315 1
1312 1316 1
1312 1317 1
1318 1315 1
1318 1316 1
1318 1317 1
1320 1323 1
1320 1327 1
1321 1324 1
1321 1325 1
1321 1326 1
1327 1324 1
1327 1325 1
1327 1326 1
1329 1332 1
1329 1336 1
1330 1333 1
1330 1334 1
1330 1335 1
1336 1333 1
1336 1334 1
1336 1335 1
1338 1341 1
1338 1345 1
1339 1342 1
1339 1343 1
1339 1344 1
1345 1342 1
1345 1343 1
1345 1344 1
1347 1350 1
1347 1354 1
1348 1351 1
1348 1352 1
1348 1353 1
1354 1351 1
1354 1352 1
1354 1353 1
1356 1359 1
1356 1364 1
1357 1360 1
1357 1362 1
1357 1363 1
1358 1361 1
1362 1361 1
1363 1361 1
1364 1360 1
1364 1362 1
1364 1363 1
1366 1369 1
1366 1373 1
1367 1370 1
1367 1371 1
1367 1372 1
1373 1370 1
1373 1371 1
1373 1372 1
1375 1378 1
1375 1382 1
1376 1379 1
1376 1380 1
1376 1381 1
1382 1379 1
1382 1380 1
1382 1381 1
1384 1387 1
1384 1391 1
1385 1388 1
1385 1389 1
1385 1390 1
1391 1388 1
1391 1389 1
1391 1390 1
1393 1396 1
1393 1400 1
1394 1397 1
1394 1398 1
1394 1399 1
1400 1397 1
1400 1398 1
1400 1399 1
1402 1405 1
1402 1410 1
1403 1406 1
1403 1408 1
1403 1409 1
1404 1407 1
1408 1407 1
1409 1407 1
1410 1406 1
1410 1408 1
1410 1409 1
1412 1415 1
1412 1419 1
1413 1416 1
1413 1417 1
1413 1418 1
1419 1416 1
1419 1417 1
1419 1418 1
1421 1424 1
1421 1427 1
1422 1425 1
1422 1426 1
1427 1425 1
1427 1426 1
1429 1432 1
1429 1436 1
1430 1433 1
1430 1434 1
1430 1435 1
1436 1433 1
1436 1434 1
1436 1435 1
1438 1441 1
1438 1445 1
1439 1442 1
1439 1443 1
1439 1444 1
1445 1442 1
1445 1443 1
1445 1444 1
1447 1450 1
1447 1454 1
1448 1451 1
1448 1452 1
1448 1453 1
1454 1451 1
1454 1452 1
1454 1453 1
1456 1459 1
1456 1463 1
1457 1460 1
1457 1461 1
1457 1462 1
1463 1460 1
1463 1461 1
1463 1462 1
1465 1468 1
1465 1472 1
1466 1469 1
1466 1470 1
1466 1471 1
1472 1469 1
1472 1470 1
1472 1471 1
1474 1477 1
1474 1481 1
1475 1478 1
1475 1479 1
1475 1480 1
1481 1478 1
1481 1479 1
1481 1480 1
1483 1486 1
1483 1490 1
1484 1487 1
1484 1488 1
1484 1489 1
1490 1487 1
1490 1488 1
1490 1489 1
1492 1495 1
1492 1499 1
1493 1496 1
1493 1497 1
1493 1498 1
1499 1496 1
1499 1497 1
1499 1498 1
1501 1504 1
1501 1508 1
1502 1505 1
1502 1506 1
1502 1507 1
1508 1505 1
1508 1506 1
1508 1507 1
1510 1513 1
1510 1517 1
1511 1514 1
1511 1515 1
1511 1516 1
1517 1514 1
1517 1515 1
1517 1516 1
1519 1522 1
1519 1526 1
1520 1523 1
1520 1524 1
1520 1525 1
1526 1523 1
1526 1524 1
1526 1525 1
1528 1531 1
1528 1535 1
1529 1532 1
1529 1533 1
1529 1534 1
1535 1532 1
1535 1533 1
1535 1534 1
1537 1540 1
1537 1544 1
1538 1541 1
1538 1542 1
1538 1543 1
1544 1541 1
1544 1542 1
1544 1543 1
1546 1549 1
1546 1553 1
1547 1550 1
1547 1551 1
1547 1552 1
1553 1550 1
1553 1551 1
1553 1552 1
1555 1558 1
1555 1561 1
1556 1559 1
1556 1560 1
1561 1559 1
1561 1560 1
1563 1566 1
1563 1570 1
1564 1567 1
1564 1568 1
1564 1569 1
1570 1567 1
1570 1568 1
1570 1569 1
1572 1575 1
1572 1579 1
1573 1576 1
1573 1577 1
1573 1578 1
1579 1576 1
1579 1577 1
1579 1578 1
1581 1584 1
1581 1588 1
1582 1585 1
1582 1586 1
1582 1587 1
1588 1585 1
1588 1586 1
1588 1587 1
1590 1593 1
1590 1597 1
1591 1594 1
1591 1595 1
1591 1596 1
1597 1594 1
1597 1595 1
1597 1596 1
1599 1602 1
1599 1606 1
1600 1603 1
1600 1604 1
1600 1605 1
1606 1603 1
1606 1604 1
1606 1605 1
1608 1611 1
1608 1615 1
1609 1612 1
1609 1613 1
1609 1614 1
1615 1612 1
1615 1613 1
1615 1614 1
1617 1620 1
1617 1624 1
1618 1621 1
1618 1622 1
1618 1623 1
1624 1621 1
1624 1622 1
1624 1623 1
1626 1629 1
1626 1633 1
1627 1630 1
1627 1631 1
1627 1632 1
1633 1630 1
1633 1631 1
1633 1632 1
1635 1638 1
1635 1642 1
1636 1639 1
1636 1640 1
1636 1641 1
1642 1639 1
1642 1640 1
1642 1641 1
1644 1647 1
1644 1652 1
1645 1648 1
1645 1650 1
1645 1651 1
1646 1649 1
1650 1649 1
1651 1649 1
1652 1648 1
1652 1650 1
1652 1651 1
1654 1657 1
1654 1661 1
1655 1658 1
1655 1659 1
1655 1660 1
1661 1658 1
1661 1659 1
1661 1660 1
1663 1666 1
1663 1670 1
1664 1667 1
1664 1668 1
1664 1669 1
1670 1667 1
1670 1668 1
1670 1669 1
1672 1675 1
1672 1678 1
1673 1676 1
1673 1677 1
1678 1676 1
1678 1677 1
1680 1683 1
1680 1687 1
1681 1684 1
1681 1685 1
1681 1686 1
1687 1684 1
1687 1685 1
1687 1686 1
1689 1692 1
1689 1696 1
1690 1693 1
1690 1694 1
1690 1695 1
1696 1693 1
1696 1694 1
1696 1695 1
1698 1701 1
1698 1704 1
1699 1702 1
1699 1703 1
1704 1702 1
1704 1703 1
1706 1709 1
1706 1712 1
1707 1710 1
1707 1711 1
1712 1710 1
1712 1711 1
1714 1717 1
1714 1721 1
1715 1718 1
1715 1719 1
1715 1720 1
1721 1718 1
1721 1719 1
1721 1720 1
1723 1726 1
1723 1730 1
1724 1727 1
1724 1728 1
1724 1729 1
1730 1727 1
1730 1728 1
1730 1729 1
1732 1735 1
1732 1739 1
1733 1736 1
1733 1737 1
1733 1738 1
1739 1736 1
1739 1737 1
1739 1738 1
1741 1744 1
1741 1748 1
1742 1745 1
1742 1746 1
1742 1747 1
1748 1745 1
1748 1746 1
1748 1747 1
1750 1753 1
1750 1757 1
1751 1754 1
1751 1755 1
1751 1756 1
1757 1754 1
1757 1755 1
1757 1756 1
1759 1762 1
1759 1767 1
1760 1763 1
1760 1765 1
1760 1766 1
1761 1764 1
1765 1764 1
1766 1764 1
1767 1763 1
1767 1765 1
1767 1766 1
1769 1772 1
1769 1776 1
1770 1773 1
1770 1774 1
1770 1775 1
1776 1773 1
1776 1774 1
1776 1775 1
1778 1781 1
1778 1785 1
1779 1782 1
1779 1783 1
1779 1784 1
1785 1782 1
1785 1783 1
1785 1784 1
1787 1790 1
1787 1794 1
1788 1791 1
1788 1792 1
1788 1793 1
1794 1791 1
1794 1792 1
1794 1793 1
1796 1799 1
1796 1803 1
1797 1800 1
1797 1801 1
1797 1802 1
1803 1800 1
1803 1801 1
1803 1802 1
1805 1808 1
1805 1812 1
1806 1809 1
1806 1810 1
1806 1811 1
1812 1809 1
1812 1810 1
1812 1811 1
1814 1817 1
1814 1821 1
1815 1818 1
1815 1819 1
1815 1820 1
1821 1818 1
1821 1819 1
1821 1820 1
1823 1826 1
1823 1830 1
1824 1827 1
1824 1828 1
1824 1829 1
1830 1827 1
1830 1828 1
1830 1829 1
1832 1835 1
1832 1840 1
1833 1836 1
1833 1838 1
1833 1839 1
1834 1837 1
1838 1837 1
1839 1837 1
1840 1836 1
1840 1838 1
1840 1839 1
1842 1845 1
1842 1849 1
1843 1846 1
1843 1847 1
1843 1848 1
1849 1846 1
1849 1847 1
1849 1848 1
1851 1854 1
1851 1857 1
1852 1855 1
1852 1856 1
1857 1855 1
1857 1856 1
1859 1862 1
1859 1866 1
1860 1863 1
1860 1864 1
1860 1865 1
1866 1863 1
1866 1864 1
1866 1865 1
1868 1871 1
1868 1875 1
1869 1872 1
1869 1873 1
1869 1874 1
1875 1872 1
1875 1873 1
1875 1874 1
1877 1880 1
1877 1884 1
1878 1881 1
1878 1882 1
1878 1883 1
1884 1881 1
1884 1882 1
1884 1883 1
1886 1889 1
1886 1893 1
1887 1890 1
1887 1891 1
1887 1892 1
1893 1890 1
1893 1891 1
1893 1892 1
1895 1898 1
1895 1902 1
1896 1899 1
1896 1900 1
1896 1901 1
1902 1899 1
1902 1900 1
1902 1901 1
1904 1907 1
1904 1910 1
1905 1908 1
1905 1909 1
1910 1908 1
1910 1909 1
1912 1915 1
1912 1919 1
1913 1916 1
1913 1917 1
1913 1918 1
1919 1916 1
1919 1917 1
1919 1918 1
1921 1924 1
1921 1927 1
1922 1925 1
1922 1926 1
1927 1925 1
1927 1926 1
1929 1932 1
1929 1936 1
1930 1933 1
1930 1934 1
1930 1935 1
1936 1933 1
1936 1934 1
1936 1935 1
1938 1941 1
1938 1945 1
1939 1942 1
1939 1943 1
1939 1944 1
1945 1942 1
1945 1943 1
1945 1944 1
1947 1950 1
1947 1954 1
1948 1951 1
1948 1952 1
1948 1953 1
1954 1951 1
1954 1952 1
1954 1953 1
1956 1959 1
1956 1963 1
1957 1960 1
1957 1961 1
1957 1962 1
1963 1960 1
1963 1961 1
1963 1962 1
1965 1968 1
1965 1972 1
1966 1969 1
1966 1970 1
1966 1971 1
1972 1969 1
1972 1970 1
1972 1971 1
1974 1977 1
1974 1981 1
1975 1978 1
1975 1979 1
1975 1980 1
1981 1978 1
1981 1979 1
1981 1980 1
1983 1986 1
1983 1990 1
1984 1987 1
1984 1988 1
1984 1989 1
1990 1987 1
1990 1988 1
1990 1989 1
1992 1995 1
1992 1999 1
1993 1996 1
1993 1997 1
1993 1998 1
1999 1996 1
1999 1997 1
1999 1998 1
2001 2004 1
2001 2008 1
2002 2005 1
2002 2006 1
2002 2007 1
2008 2005 1
2008 2006 1
2008 2007 1
2010 2013 1
2010 2017 1
2011 2014 1
2011 2015 1
2011 2016 1
2017 2014 1
2017 2015 1
2017 2016 1
2019 2022 1
2019 2026 1
2020 2023 1
2020 2024 1
2020 2025 1
2026 2023 1
2026 2024 1
2026 2025 1
2028 2031 1
2028 2035 1
2029 2032 1
2029 2033 1
2029 2034 1
2035 2032 1
2035 2033 1
2035 2034 1
2037 2040 1
2037 2044 1
2038 2041 1
2038 2042 1
2038 2043 1
2044 2041 1
2044 2042 1
2044 2043 1
2046 2049 1
2046 2053 1
2047 2050 1
2047 2051 1
2047 2052 1
2053 2050 1
2053 2051 1
2053 2052 1
2055 2058 1
2055 2062 1
2056 2059 1
2056 2060 1
2056 2061 1
2062 2059 1
2062 2060 1
2062 2061 1
2064 2067 1
2064 2071 1
2065 2068 1
2065 2069 1
2065 2070 1
2071 2068 1
2071 2069 1
2071 2070 1
2073 2076 1
2073 2080 1
2074 2077 1
2074 2078 1
2074 2079 1
2080 2077 1
2080 2078 1
2080 2079 1
2082 2085 1
2082 2088 1
2083 2086 1
2083 2087 1
2088 2086 1
2088 2087 1
2090 2093 1
2090 2097 1
2091 2094 1
2091 2095 1
2091 2096 1
2097 2094 1
2097 2095 1
2097 2096 1
2099 2102 1
2099 2105 1
2100 2103 1
2100 2104 1
2105 2103 1
2105 2104 1
2107 2110 1
2107 2113 1
2108 2111 1
2108 2112 1
2113 2111 1
2113 2112 1
2115 2118 1
2115 2122 1
2116 2119 1
2116 2120 1
2116 2121 1
2122 2119 1
2122 2120 1
2122 2121 1
2124 2127 1
2124 2131 1
2125 2128 1
2125 2129 1
2125 2130 1
2131 2128 1
2131 2129 1
2131 2130 1
2133 2136 1
2133 2140 1
2134 2137 1
2134 2138 1
2134 2139 1
2140 2137 1
2140 2138 1
2140 2139 1
2142 2145 1
2142 2149 1
2143 2146 1
2143 2147 1
2143 2148 1
2149 2146 1
2149 2147 1
2149 2148 1
2151 2154 1
2151 2158 1
2152 2155 1
2152 2156 1
2152 2157 1
2158 2155 1
2158 2156 1
2158 2157 1
2160 2163 1
2160 2167 1
2161 2164 1
2161 2165 1
2161 2166 1
2167 2164 1
2167 2165 1
2167 2166 1
2169 2172 1
2169 2176 1
2170 2173 1
2170 2174 1
2170 2175 1
2176 2173 1
2176 2174 1
2176 2175 1
2178 2181 1
2178 2186 1
2179 2182 1
2179 2184 1
2179 2185 1
2180 2183 1
2184 2183 1
2185 2183 1
2186 2182 1
2186 2184 1
2186 2185 1
2188 2191 1
2188 2195 1
2189 2192 1
2189 2193 1
2189 2194 1
2195 2192 1
2195 2193 1
2195 2194 1
2197 2200 1
2197 2204 1
2198 2201 1
2198 2202 1
2198 2203 1
2204 2201 1
2204 2202 1
2204 2203 1
2206 2209 1
2206 2213 1
2207 2210 1
2207 2211 1
2207 2212 1
2213 2210 1
2213 2211 1
2213 2212 1
2215 2218 1
2215 2223 1
2216 2219 1
2216 2221 1
2216 2222 1
2217 2220 1
2221 2220 1
2222 2220 1
2223 2219 1
2223 2221 1
2223 2222 1
2225 2228 1
2225 2232 1
2226 2229 1
2226 2230 1
2226 2231 1
2232 2229 1
2232 2230 1
2232 2231 1
2234 2237 1
2234 2241 1
2235 2238 1
2235 2239 1
2235 2240 1
2241 2238 1
2241 2239 1
2241 2240 1
2243 2246 1
2243 2250 1
2244 2247 1
2244 2248 1
2244 2249 1
2250 2247 1
2250 2248 1
2250 2249 1
2252 2255 1
2252 2259 1
2253 2256 1
2253 2257 1
2253 2258 1
2259 2256 1
2259 2257 1
2259 2258 1
2261 2264 1
2261 2268 1
2262 2265 1
2262 2266 1
2262 2267 1
2268 2265 1
2268 2266 1
2268 2267 1
2270 2273 1
2270 2277 1
2271 2274 1
2271 2275 1
2271 2276 1
2277 2274 1
2277 2275 1
2277 2276 1
2279 2282 1
2279 2286 1
2280 2283 1
2280 2284 1
2280 2285 1
2286 2283 1
2286 2284 1
2286 2285 1
2288 2291 1
2288 2295 1
2289 2292 1
2289 2293 1
2289 2294 1
2295 2292 1
2295 2293 1
2295 2294 1
2297 2300 1
2297 2304 1
2298 2301 1
2298 2302 1
2298 2303 1
2304 2301 1
2304 2302 1
2304 2303 1
2306 2309 1
2306 2313 1
2307 2310 1
2307 2311 1
2307 2312 1
2313 2310 1
2313 2311 1
2313 2312 1
2315 2318 1
2315 2322 1
2316 2319 1
2316 2320 1
2316 2321 1
2322 2319 1
2322 2320 1
2322 2321 1
2324 2327 1
2324 2331 1
2325 2328 1
2325 2329 1
2325 2330 1
2331 2328 1
2331 2329 1
2331 2330 1
2333 2336 1
2333 2340 1
2334 2337 1
2334 2338 1
2334 2339 1
2340 2337 1
2340 2338 1
2340 2339 1
2342 2345 1
2342 2349 1
2343 2346 1
2343 2347 1
2343 2348 1
2349 2346 1
2349 2347 1
2349 2348 1
2351 2354 1
2351 2359 1
2352 2355 1
2352 2357 1
2352 2358 1
2353 2356 1
2357 2356 1
2358 2356 1
2359 2355 1
2359 2357 1
2359 2358 1
2361 2364 1
2361 2367 1
2362 2365 1
2362 2366 1
2367 2365 1
2367 2366 1
2369 2372 1
2369 2376 1
2370 2373 1
2370 2374 1
2370 2375 1
2376 2373 1
2376 2374 1
2376 2375 1
2378 2381 1
2378 2385 1
2379 2382 1
2379 2383 1
2379 2384 1
2385 2382 1
2385 2383 1
2385 2384 1
2387 2390 1
2387 2394 1
2388 2391 1
2388 2392 1
2388 2393 1
2394 2391 1
2394 2392 1
2394 2393 1
2396 2399 1
2396 2403 1
2397 2400 1
2397 2401 1
2397 2402 1
2403 2400 1
2403 2401 1
2403 2402 1
2405 2408 1
2405 2412 1
2406 2409 1
2406 2410 1
2406 2411 1
2412 2409 1
2412 2410 1
2412 2411 1
2414 2417 1
2414 2421 1
2415 2418 1
2415 2419 1
2415 2420 1
2421 2418 1
2421 2419 1
2421 2420 1
2423 2426 1
2423 2429 1
2424 2427 1
2424 2428 1
2429 2427 1
2429 2428 1
2431 2434 1
2431 2438 1
2432 2435 1
2432 2436 1
2432 2437 1
2438 2435 1
2438 2436 1
2438 2437 1
2440 2443 1
2440 2448 1
2441 2444 1
2441 2446 1
2441 2447 1
2442 2445 1
2446 2445 1
2447 2445 1
2448 2444 1
2448 2446 1
2448 2447 1
2450 2453 1
2450 2457 1
2451 2454 1
2451 2455 1
2451 2456 1
2457 2454 1
2457 2455 1
2457 2456 1
2459 2462 1
2459 2466 1
2460 2463 1
2460 2464 1
2460 2465 1
2466 2463 1
2466 2464 1
2466 2465 1
2468 2471 1
2468 2474 1
2469 2472 1
2469 2473 1
2474 2472 1
2474 2473 1
2476 2479 1
2476 2483 1
2477 2480 1
2477 2481 1
2477 2482 1
2483 2480 1
2483 2481 1
2483 2482 1
2485 2488 1
2485 2492 1
2486 2489 1
2486 2490 1
2486 2491 1
2492 2489 1
2492 2490 1
2492 2491 1
2494 2497 1
2494 2501 1
2495 2498 1
2495 2499 1
2495 2500 1
2501 2498 1
2501 2499 1
2501 2500 1
2503 2506 1
2503 2510 1
2504 2507 1
2504 2508 1
2504 2509 1
2510 2507 1
2510 2508 1
2510 2509 1
2512 2515 1
2512 2519 1
2513 2516 1
2513 2517 1
2513 2518 1
2519 2516 1
2519 2517 1
2519 2518 1
2521 2524 1
2521 2528 1
2522 2525 1
2522 2526 1
2522 2527 1
2528 2525 1
2528 2526 1
2528 2527 1
2530 2533 1
2530 2536 1
2531 2534 1
2531 2535 1
2536 2534 1
2536 2535 1
2538 2541 1
2538 2545 1
2539 2542 1
2539 2543 1
2539 2544 1
2545 2542 1
2545 2543 1
2545 2544 1
2547 2550 1
2547 2554 1
2548 2551 1
2548 2552 1
2548 2553 1
2554 2551 1
2554 2552 1
2554 2553 1
2556 2559 1
2556 2563 1
2557 2560 1
2557 2561 1
2557 2562 1
2563 2560 1
2563 2561 1
2563 2562 1
2565 2568 1
2565 2572 1
2566 2569 1
2566 2570 1
2566 2571 1
2572 2569 1
2572 2570 1
2572 2571 1
2574 2577 1
2574 2582 1
2575 2578 1
2575 2580 1
2575 2581 1
2576 2579 1
2580 2579 1
2581 2579 1
2582 2578 1
2582 2580 1
2582 2581 1
2584 2587 1
2584 2592 1
2585 2588 1
2585 2590 1
2585 2591 1
2586 2589 1
2590 2589 1
2591 2589 1
2592 2588 1
2592 2590 1
2592 2591 1
2594 2597 1
2594 2601 1
2595 2598 1
2595 2599 1
2595 2600 1
2601 2598 1
2601 2599 1
2601 2600 1
2603 2606 1
2603 2610 1
2604 2607 1
2604 2608 1
2604 2609 1
2610 2607 1
2610 2608 1
2610 2609 1
2612 2615 1
2612 2619 1
2613 2616 1
2613 2617 1
2613 2618 1
2619 2616 1
2619 2617 1
2619 2618 1
2621 2624 1
2621 2628 1
2622 2625 1
2622 2626 1
2622 2627 1
2628 2625 1
2628 2626 1
2628 2627 1
2630 2633 1
2630 2636 1
2631 2634 1
2631 2635 1
2636 2634 1
2636 2635 1
2638 2641 1
2638 2645 1
2639 2642 1
2639 2643 1
2639 2644 1
2645 2642 1
2645 2643 1
2645 2644 1
2647 2650 1
2647 2654 1
2648 2651 1
2648 2652 1
2648 2653 1
2654 2651 1
2654 2652 1
2654 2653 1
2656 2659 1
2656 2663 1
2657 2660 1
2657 2661 1
2657 2662 1
2663 2660 1
2663 2661 1
2663 2662 1
2665 2668 1
2665 2672 1
2666 2669 1
2666 2670 1
2666 2671 1
2672 2669 1
2672 2670 1
2672 2671 1
2674 2677 1
2674 2682 1
2675 2678 1
2675 2680 1
2675 2681 1
2676 2679 1
2680 2679 1
2681 2679 1
2682 2678 1
2682 2680 1
2682 2681 1
2684 2687 1
2684 2691 1
2685 2688 1
2685 2689 1
2685 2690 1
2691 2688 1
2691 2689 1
2691 2690 1
2693 2696 1
2693 2699 1
2694 2697 1
2694 2698 1
2699 2697 1
2699 2698 1
2701 2704 1
2701 2707 1
2702 2705 1
2702 2706 1
2707 2705 1
2707 2706 1
2709 2712 1
2709 2716 1
2710 2713 1
2710 2714 1
2710 2715 1
2716 2713 1
2716 2714 1
2716 2715 1
2718 2721 1
2718 2725 1
2719 2722 1
2719 2723 1
2719 2724 1
2725 2722 1
2725 2723 1
2725 2724 1
2727 2730 1
2727 2733 1
2728 2731 1
2728 2732 1
2733 2731 1
2733 2732 1
2735 2738 1
2735 2742 1
2736 2739 1
2736 2740 1
2736 2741 1
2742 2739 1
2742 2740 1
2742 2741 1
2744 2747 1
2744 2751 1
2745 2748 1
2745 2749 1
2745 2750 1
2751 2748 1
2751 2749 1
2751 2750 1
2753 2756 1
2753 2761 1
2754 2757 1
2754 2759 1
2754 2760 1
2755 2758 1
2759 2758 1
2760 2758 1
2761 2757 1
2761 2759 1
2761 2760 1
2763 2766 1
2763 2770 1
2764 2767 1
2764 2768 1
2764 2769 1
2770 2767 1
2770 2768 1
2770 2769 1
2772 2775 1
2772 2779 1
2773 2776 1
2773 2777 1
2773 2778 1
2779 2776 1
2779 2777 1
2779 2778 1
2781 2784 1
2781 2787 1
2782 2785 1
2782 2786 1
2787 2785 1
2787 2786 1
2789 2792 1
2789 2796 1
2790 2793 1
2790 2794 1
2790 2795 1
2796 2793 1
2796 2794 1
2796 2795 1
2798 2801 1
2798 2805 1
2799 2802 1
2799 2803 1
2799 2804 1
2805 2802 1
2805 2803 1
2805 2804 1
2807 2810 1
2807 2814 1
2808 2811 1
2808 2812 1
2808 2813 1
2814 2811 1
2814 2812 1
2814 2813 1
2816 2819 1
2816 2823 1
2817 2820 1
2817 2821 1
2817 2822 1
2823 2820 1
2823 2821 1
2823 2822 1
2825 2828 1
2825 2831 1
2826 2829 1
2826 2830 1
2831 2829 1
2831 2830 1
2833 2836 1
2833 2840 1
2834 2837 1
2834 2838 1
2834 2839 1
2840 2837 1
2840 2838 1
2840 2839 1
2842 2845 1
2842 2849 1
2843 2846 1
2843 2847 1
2843 2848 1
2849 2846 1
2849 2847 1
2849 2848 1
2851 2854 1
2851 2857 1
2852 2855 1
2852 2856 1
2857 2855 1
2857 2856 1
2859 2862 1
2859 2866 1
2860 2863 1
2860 2864 1
2860 2865 1
2866 2863 1
2866 2864 1
2866 2865 1
2868 2871 1
2868 2874 1
2869 2872 1
2869 2873 1
2874 2872 1
2874 2873 1
2876 2879 1
2876 2882 1
2877 2880 1
2877 2881 1
2882 2880 1
2882 2881 1
2884 2887 1
2884 2890 1
2885 2888 1
2885 2889 1
2890 2888 1
2890 2889 1
2892 2895 1
2892 2899 1
2893 2896 1
2893 2897 1
2893 2898 1
2899 2896 1
2899 2897 1
2899 2898 1
2901 2904 1
2901 2907 1
2902 2905 1
2902 2906 1
2907 2905 1
2907 2906 1
2909 2912 1
2909 2916 1
2910 2913 1
2910 2914 1
2910 2915 1
2916 2913 1
2916 2914 1
2916 2915 1
2918 2921 1
2918 2925 1
2919 2922 1
2919 2923 1
2919 2924 1
2925 2922 1
2925 2923 1
2925 2924 1
2927 2930 1
2927 2934 1
2928 2931 1
2928 2932 1
2928 2933 1
2934 2931 1
2934 2932 1
2934 2933 1
2936 2939 1
2936 2943 1
2937 2940 1
2937 2941 1
2937 2942 1
2943 2940 1
2943 2941 1
2943 2942 1
2945 2948 1
2945 2952 1
2946 2949 1
2946 2950 1
2946 2951 1
2952 2949 1
2952 2950 1
2952 2951 1
2954 2957 1
2954 2961 1
2955 2958 1
2955 2959 1
2955 2960 1
2961 2958 1
2961 2959 1
2961 2960 1
2963 2966 1
2963 2970 1
2964 2967 1
2964 2968 1
2964 2969 1
2970 2967 1
2970 2968 1
2970 2969 1
2972 2975 1
2972 2979 1
2973 2976 1
2973 2977 1
2973 2978 1
2979 2976 1
2979 2977 1
2979 2978 1
2981 2984 1
2981 2988 1
2982 2985 1
2982 2986 1
2982 2987 1
2988 2985 1
2988 2986 1
2988 2987 1
2990 2993 1
2990 2997 1
2991 2994 1
2991 2995 1
2991 2996 1
2997 2994 1
2997 2995 1
2997 2996 1
2999 3002 1
2999 3006 1
3000 3003 1
3000 3004 1
3000 3005 1
3006 3003 1
3006 3004 1
3006 3005 1
3008 3011 1
3008 3014 1
3009 3012 1
3009 3013 1
3014 3012 1
3014 3013 1
3016 3019 1
3016 3022 1
3017 3020 1
3017 3021 1
3022 3020 1
3022 3021 1
3024 3027 1
3024 3030 1
3025 3028 1
3025 3029 1
3030 3028 1
3030 3029 1
3032 3035 1
3032 3039 1
3033 3036 1
3033 3037 1
3033 3038 1
3039 3036 1
3039 3037 1
3039 3038 1
3041 3044 1
3041 3047 1
3042 3045 1
3042 3046 1
3047 3045 1
3047 3046 1
3049 3052 1
3049 3055 1
3050 3053 1
3050 3054 1
3055 3053 1
3055 3054 1
3057 3060 1
3057 3064 1
3058 3061 1
3058 3062 1
3058 3063 1
3064 3061 1
3064 3062 1
3064 3063 1
3066 3069 1
3066 3073 1
3067 3070 1
3067 3071 1
3067 3072 1
3073 3070 1
3073 3071 1
3073 3072 1
3075 3078 1
3075 3082 1
3076 3079 1
3076 3080 1
3076 3081 1
3082 3079 1
3082 3080 1
3082 3081 1
3084 3087 1
3084 3092 1
3085 3088 1
3085 3090 1
3085 3091 1
3086 3089 1
3090 3089 1
3091 3089 1
3092 3088 1
3092 3090 1
3092 3091 1
3094 3097 1
3094 3101 1
3095 3098 1
3095 3099 1
3095 3100 1
3101 3098 1
3101 3099 1
3101 3100 1
3103 3106 1
3103 3109 1
3104 3107 1
3104 3108 1
3109 3107 1
3109 3108 1
3111 3114 1
3111 3118 1
3112 3115 1
3112 3116 1
3112 3117 1
3118 3115 1
3118 3116 1
3118 3117 1
3120 3123 1
3120 3127 1
3121 3124 1
3121 3125 1
3121 3126 1
3127 3124 1
3127 3125 1
3127 3126 1
3129 3132 1
3129 3136 1
3130 3133 1
3130 3134 1
3130 3135 1
3136 3133 1
3136 3134 1
3136 3135 1
3138 3141 1
3138 3144 1
3139 3142 1
3139 3143 1
3144 3142 1
3144 3143 1
3146 3149 1
3146 3152 1
3147 3150 1
3147 3151 1
3152 3150 1
3152 3151 1
3154 3157 1
3154 3160 1
3155 3158 1
3155 3159 1
3160 3158 1
3160 3159 1
3162 3165 1
3162 3169 1
3163 3166 1
3163 3167 1
3163 3168 1
3169 3166 1
3169 3167 1
3169 3168 1
3171 3174 1
3171 3177 1
3172 3175 1
3172 3176 1
3177 3175 1
3177 3176 1
3179 3182 1
3179 3186 1
3180 3183 1
3180 3184 1
3180 3185 1
3186 3183 1
3186 3184 1
3186 3185 1
3188 3191 1
3188 3196 1
3189 3192 1
3189 3194 1
3189 3195 1
3190 3193 1
3194 3193 1
3195 3193 1
3196 3192 1
3196 3194 1
3196 3195 1
3198 3201 1
3198 3205 1
3199 3202 1
3199 3203 1
3199 3204 1
3205 3202 1
3205 3203 1
3205 3204 1
3207 3210 1
3207 3213 1
3208 3211 1
3208 3212 1
3213 3211 1
3213 3212 1
3215 3218 1
3215 3222 1
3216 3219 1
3216 3220 1
3216 3221 1
3222 3219 1
3222 3220 1
3222 3221 1
3224 3227 1
3224 3230 1
3225 3228 1
3225 3229 1
3230 3228 1
3230 3229 1
3232 3235 1
3232 3239 1
3233 3236 1
3233 3237 1
3233 3238 1
3239 3236 1
3239 3237 1
3239 3238 1
3241 3244 1
3241 3249 1
3242 3245 1
3242 3247 1
3242 3248 1
3243 3246 1
3247 3246 1
3248 3246 1
3249 3245 1
3249 3247 1
3249 3248 1
3251 3254 1
3251 3258 1
3252 3255 1
3252 3256 1
3252 3257 1
3258 3255 1
3258 3256 1
3258 3257 1
3260 3263 1
3260 3267 1
3261 3264 1
3261 3265 1
3261 3266 1
3267 3264 1
3267 3265 1
3267 3266 1
3269 3272 1
3269 3276 1
3270 3273 1
3270 3274 1
3270 3275 1
3276 3273 1
3276 3274 1
3276 3275 1
3278 3281 1
3278 3285 1
3279 3282 1
3279 3283 1
3279 3284 1
3285 3282 1
3285 3283 1
3285 3284 1
3287 3290 1
3287 3294 1
3288 3291 1
3288 3292 1
3288 3293 1
3294 3291 1
3294 3292 1
3294 3293 1
3296 3299 1
3296 3303 1
3297 3300 1
3297 3301 1
3297 3302 1
3303 3300 1
3303 3301 1
3303 3302 1
3305 3308 1
3305 3312 1
3306 3309 1
3306 3310 1
3306 3311 1
3312 3309 1
3312 3310 1
3312 3311 1
3314 3317 1
3314 3320 1
3315 3318 1
3315 3319 1
3320 3318 1
3320 3319 1
3322 3325 1
3322 3329 1
3323 3326 1
3323 3327 1
3323 3328 1
3329 3326 1
3329 3327 1
3329 3328 1
3331 3334 1
3331 3338 1
3332 3335 1
3332 3336 1
3332 3337 1
3338 3335 1
3338 3336 1
3338 3337 1
3340 3343 1
3340 3348 1
3341 3344 1
3341 3346 1
3341 3347 1
3342 3345 1
3346 3345 1
3347 3345 1
3348 3344 1
3348 3346 1
3348 3347 1
3350 3353 1
3350 3358 1
3351 3354 1
3351 3356 1
3351 3357 1
3352 3355 1
3356 3355 1
3357 3355 1
3358 3354 1
3358 3356 1
3358 3357 1
3360 3363 1
3360 3367 1
3361 3364 1
3361 3365 1
3361 3366 1
3367 3364 1
3367 3365 1
3367 3366 1
3369 3372 1
3369 3376 1
3370 3373 1
3370 3374 1
3370 3375 1
3376 3373 1
3376 3374 1
3376 3375 1
3378 3381 1
3378 3386 1
3379 3382 1
3379 3384 1
3379 3385 1
3380 3383 1
3384 3383 1
3385 3383 1
3386 3382 1
3386 3384 1
3386 3385 1
3388 3391 1
3388 3395 1
3389 3392 1
3389 3393 1
3389 3394 1
3395 3392 1
3395 3393 1
3395 3394 1
3397 3400 1
3397 3404 1
3398 3401 1
3398 3402 1
3398 3403 1
3404 3401 1
3404 3402 1
3404 3403 1
3406 3409 1
3406 3413 1
3407 3410 1
3407 3411 1
3407 3412 1
3413 3410 1
3413 3411 1
3413 3412 1
3415 3418 1
3415 3422 1
3416 3419 1
3416 3420 1
3416 3421 1
3422 3419 1
3422 3420 1
3422 3421 1
3424 3427 1
3424 3431 1
3425 3428 1
3425 3429 1
3425 3430 1
3431 3428 1
3431 3429 1
3431 3430 1
3433 3436 1
3433 3440 1
3434 3437 1
3434 3438 1
3434 3439 1
3440 3437 1
3440 3438 1
3440 3439 1
3442 3445 1
3442 3449 1
3443 3446 1
3443 3447 1
3443 3448 1
3449 3446 1
3449 3447 1
3449 3448 1
3451 3454 1
3451 3458 1
3452 3455 1
3452 3456 1
3452 3457 1
3458 3455 1
3458 3456 1
3458 3457 1
3460 3463 1
3460 3468 1
3461 3464 1
3461 3466 1
3461 3467 1
3462 3465 1
3466 3465 1
3467 3465 1
3468 3464 1
3468 3466 1
3468 3467 1
3470 3473 1
3470 3477 1
3471 3474 1
3471 3475 1
3471 3476 1
3477 3474 1
3477 3475 1
3477 3476 1
3479 3482 1
3479 3486 1
3480 3483 1
3480 3484 1
3480 3485 1
3486 3483 1
3486 3484 1
3486 3485 1
3488 3491 1
3488 3495 1
3489 3492 1
3489 3493 1
3489 3494 1
3495 3492 1
3495 3493 1
3495 3494 1
3497 3500 1
3497 3504 1
3498 3501 1
3498 3502 1
3498 3503 1
3504 3501 1
3504 3502 1
3504 3503 1
3506 3509 1
3506 3512 1
3507 3510 1
3507 3511 1
3512 3510 1
3512 3511 1
3514 3517 1
3514 3521 1
3515 3518 1
3515 3519 1
3515 3520 1
3521 3518 1
3521 3519 1
3521 3520 1
3523 3526 1
3523 3530 1
3524 3527 1
3524 3528 1
3524 3529 1
3530 3527 1
3530 3528 1
3530 3529 1
3532 3535 1
3532 3539 1
3533 3536 1
3533 3537 1
3533 3538 1
3539 3536 1
3539 3537 1
3539 3538 1
3541 3544 1
3541 3548 1
3542 3545 1
3542 3546 1
3542 3547 1
3548 3545 1
3548 3546 1
3548 3547 1
3550 3553 1
3550 3557 1
3551 3554 1
3551 3555 1
3551 3556 1
3557 3554 1
3557 3555 1
3557 3556 1
3559 3562 1
3559 3566 1
3560 3563 1
3560 3564 1
3560 3565 1
3566 3563 1
3566 3564 1
3566 3565 1
3568 3571 1
3568 3574 1
3569 3572 1
3569 3573 1
3574 3572 1
3574 3573 1
3576 3579 1
3576 3582 1
3577 3580 1
3577 3581 1
3582 3580 1
3582 3581 1
3584 3587 1
3584 3591 1
3585 3588 1
3585 3589 1
3585 3590 1
3591 3588 1
3591 3589 1
3591 3590 1
3593 3596 1
3593 3599 1
3594 3597 1
3594 3598 1
3599 3597 1
3599 3598 1
3601 3604 1
3601 3607 1
3602 3605 1
3602 3606 1
3607 3605 1
3607 3606 1
3609 3612 1
3609 3616 1
3610 3613 1
3610 3614 1
3610 3615 1
3616 3613 1
3616 3614 1
3616 3615 1
3618 3621 1
3618 3624 1
3619 3622 1
3619 3623 1
3624 3622 1
3624 3623 1
3626 3629 1
3626 3633 1
3627 3630 1
3627 3631 1
3627 3632 1
3633 3630 1
3633 3631 1
3633 3632 1
3635 3638 1
3635 3641 1
3636 3639 1
3636 3640 1
3641 3639 1
3641 3640 1
3643 3646 1
3643 3650 1
3644 3647 1
3644 3648 1
3644 3649 1
3650 3647 1
3650 3648 1
3650 3649 1
3652 3655 1
3652 3658 1
3653 3656 1
3653 3657 1
3658 3656 1
3658 3657 1
3660 3663 1
3660 3668 1
3661 3664 1
3661 3666 1
3661 3667 1
3662 3665 1
3666 3665 1
3667 3665 1
3668 3664 1
3668 3666 1
3668 3667 1
3670 3673 1
3670 3677 1
3671 3674 1
3671 3675 1
3671 3676 1
3677 3674 1
3677 3675 1
3677 3676 1
3679 3682 1
3679 3686 1
3680 3683 1
3680 3684 1
3680 3685 1
3686 3683 1
3686 3684 1
3686 3685 1
3688 3691 1
3688 3695 1
3689 3692 1
3689 3693 1
3689 3694 1
3695 3692 1
3695 3693 1
3695 3694 1
3697 3700 1
3697 3704 1
3698 3701 1
3698 3702 1
3698 3703 1
3704 3701 1
3704 3702 1
3704 3703 1
3706 3709 1
3706 3712 1
3707 3710 1
3707 3711 1
3712 3710 1
3712 3711 1
3714 3717 1
3714 3721 1
3715 3718 1
3715 3719 1
3715 3720 1
3721 3718 1
3721 3719 1
3721 3720 1
3723 3726 1
3723 3730 1
3724 3727 1
3724 3728 1
3724 3729 1
3730 3727 1
3730 3728 1
3730 3729 1
3732 3735 1
3732 3739 1
3733 3736 1
3733 3737 1
3733 3738 1
3739 3736 1
3739 3737 1
3739 3738 1
3741 3744 1
3741 3748 1
3742 3745 1
3742 3746 1
3742 3747 1
3748 3745 1
3748 3746 1
3748 3747 1
3750 3753 1
3750 3756 1
3751 3754 1
3751 3755 1
3756 3754 1
3756 3755 1
3758 3761 1
3758 3765 1
3759 3762 1
3759 3763 1
3759 3764 1
3765 3762 1
3765 3763 1
3765 3764 1
3767 3770 1
3767 3775 1
3768 3771 1
3768 3773 1
3768 3774 1
3769 3772 1
3773 3772 1
3774 3772 1
3775 3771 1
3775 3773 1
3775 3774 1
3777 3780 1
3777 3784 1
3778 3781 1
3778 3782 1
3778 3783 1
3784 3781 1
3784 3782 1
3784 3783 1
3786 3789 1
3786 3793 1
3787 3790 1
3787 3791 1
3787 3792 1
3793 3790 1
3793 3791 1
3793 3792 1
3795 3798 1
3795 3801 1
3796 3799 1
3796 3800 1
3801 3799 1
3801 3800 1
3803 3806 1
3803 3810 1
3804 3807 1
3804 3808 1
3804 3809 1
3810 3807 1
3810 3808 1
3810 3809 1
3812 3815 1
3812 3818 1
3813 3816 1
3813 3817 1
3818 3816 1
3818 3817 1
3820 3823 1
3820 3827 1
3821 3824 1
3821 3825 1
3821 3826 1
3827 3824 1
3827 3825 1
3827 3826 1
3829 3832 1
3829 3835 1
3830 3833 1
3830 3834 1
3835 3833 1
3835 3834 1
3837 3840 1
3837 3844 1
3838 3841 1
3838 3842 1
3838 3843 1
3844 3841 1
3844 3842 1
3844 3843 1
3846 3849 1
3846 3853 1
3847 3850 1
3847 3851 1
3847 3852 1
3853 3850 1
3853 3851 1
3853 3852 1
3855 3858 1
3855 3862 1
3856 3859 1
3856 3860 1
3856 3861 1
3862 3859 1
3862 3860 1
3862 3861 1
3864 3867 1
3864 3870 1
3865 3868 1
3865 3869 1
3870 3868 1
3870 3869 1
3872 3875 1
3872 3879 1
3873 3876 1
3873 3877 1
3873 3878 1
3879 3876 1
3879 3877 1
3879 3878 1
3881 3884 1
3881 3889 1
3882 3885 1
3882 3887 1
3882 3888 1
3883 3886 1
3887 3886 1
3888 3886 1
3889 3885 1
3889 3887 1
3889 3888 1
3891 3894 1
3891 3898 1
3892 3895 1
3892 3896 1
3892 3897 1
3898 3895 1
3898 3896 1
3898 3897 1
3900 3903 1
3900 3908 1
3901 3904 1
3901 3906 1
3901 3907 1
3902 3905 1
3906 3905 1
3907 3905 1
3908 3904 1
3908 3906 1
3908 3907 1
3910 3913 1
3910 3916 1
3911 3914 1
3911 3915 1
3916 3914 1
3916 3915 1
3918 3921 1
3918 3925 1
3919 3922 1
3919 3923 1
3919 3924 1
3925 3922 1
3925 3923 1
3925 3924 1
3927 3930 1
3927 3934 1
3928 3931 1
3928 3932 1
3928 3933 1
3934 3931 1
3934 3932 1
3934 3933 1
3936 3939 1
3936 3943 1
3937 3940 1
3937 3941 1
3937 3942 1
3943 3940 1
3943 3941 1
3943 3942 1
3945 3948 1
3945 3952 1
3946 3949 1
3946 3950 1
3946 3951 1
3952 3949 1
3952 3950 1
3952 3951 1
3954 3957 1
3954 3961 1
3955 3958 1
3955 3959 1
3955 3960 1
3961 3958 1
3961 3959 1
3961 3960 1
3963 3966 1
3963 3971 1
3964 3967 1
3964 3969 1
3964 3970 1
3965 3968 1
3969 3968 1
3970 3968 1
3971 3967 1
3971 3969 1
3971 3970 1
3973 3976 1
3973 3979 1
3974 3977 1
3974 3978 1
3979 3977 1
3979 3978 1
3981 3984 1
3981 3987 1
3982 3985 1
3982 3986 1
3987 3985 1
3987 3986 1
3989 3992 1
3989 3996 1
3990 3993 1
3990 3994 1
3990 3995 1
3996 3993 1
3996 3994 1
3996 3995 1
3998 4001 1
3998 4005 1
3999 4002 1
3999 4003 1
3999 4004 1
4005 4002 1
4005 4003 1
4005 4004 1
4007 4010 1
4007 4014 1
4008 4011 1
4008 4012 1
4008 4013 1
4014 4011 1
4014 4012 1
4014 4013 1
4016 4019 1
4016 4023 1
4017 4020 1
4017 4021 1
4017 4022 1
4023 4020 1
4023 4021 1
4023 4022 1
4025 4028 1
4025 4032 1
4026 4029 1
4026 4030 1
4026 4031 1
4032 4029 1
4032 4030 1
4032 4031 1
4034 4037 1
4034 4041 1
4035 4038 1
4035 4039 1
4035 4040 1
4041 4038 1
4041 4039 1
4041 4040 1
4043 4046 1
4043 4049 1
4044 4047 1
4044 4048 1
4049 4047 1
4049 4048 1
4051 4054 1
4051 4058 1
4052 4055 1
4052 4056 1
4052 4057 1
4058 4055 1
4058 4056 1
4058 4057 1
4060 4063 1
4060 4067 1
4061 4064 1
4061 4065 1
4061 4066 1
4067 4064 1
4067 4065 1
4067 4066 1
4069 4072 1
4069 4075 1
4070 4073 1
4070 4074 1
4075 4073 1
4075 4074 1
4077 4080 1
4077 4083 1
4078 4081 1
4078 4082 1
4083 4081 1
4083 4082 1
4085 4088 1
4085 4093 1
4086 4089 1
4086 4091 1
4086 4092 1
4087 4090 1
4091 4090 1
4092 4090 1
4093 4089 1
4093 4091 1
4093 4092 1
4095 4098 1
4095 4102 1
4096 4099 1
4096 4100 1
4096 4101 1
4102 4099 1
4102 4100 1
4102 4101 1
4104 4107 1
4104 4111 1
4105 4108 1
4105 4109 1
4105 4110 1
4111 4108 1
4111 4109 1
4111 4110 1
4113 4116 1
4113 4120 1
4114 4117 1
4114 4118 1
4114 4119 1
4120 4117 1
4120 4118 1
4120 4119 1
4122 4125 1
4122 4129 1
4123 4126 1
4123 4127 1
4123 4128 1
4129 4126 1
4129 4127 1
4129 4128 1
4131 4134 1
4131 4137 1
4132 4135 1
4132 4136 1
4137 4135 1
4137 4136 1
4139 4142 1
4139 4146 1
4140 4143 1
4140 4144 1
4140 4145 1
4146 4143 1
4146 4144 1
4146 4145 1
4148 4151 1
4148 4154 1
4149 4152 1
4149 4153 1
4154 4152 1
4154 4153 1
4156 4159 1
4156 4163 1
4157 4160 1
4157 4161 1
4157 4162 1
4163 4160 1
4163 4161 1
4163 4162 1
4165 4168 1
4165 4171 1
4166 4169 1
4166 4170 1
4171 4169 1
4171 4170 1
4173 4176 1
4173 4181 1
4174 4177 1
4174 4179 1
4174 4180 1
4175 4178 1
4179 4178 1
4180 4178 1
4181 4177 1
4181 4179 1
4181 4180 1
4183 4186 1
4183 4190 1
4184 4187 1
4184 4188 1
4184 4189 1
4190 4187 1
4190 4188 1
4190 4189 1
4192 4195 1
4192 4200 1
4193 4196 1
4193 4198 1
4193 4199 1
4194 4197 1
4198 4197 1
4199 4197 1
4200 4196 1
4200 4198 1
4200 4199 1
4202 4205 1
4202 4209 1
4203 4206 1
4203 4207 1
4203 4208 1
4209 4206 1
4209 4207 1
4209 4208 1
4211 4214 1
4211 4218 1
4212 4215 1
4212 4216 1
4212 4217 1
4218 4215 1
4218 4216 1
4218 4217 1
4220 4223 1
4220 4228 1
4221 4224 1
4221 4226 1
4221 4227 1
4222 4225 1
4226 4225 1
4227 4225 1
4228 4224 1
4228 4226 1
4228 4227 1
4230 4233 1
4230 4237 1
4231 4234 1
4231 4235 1
4231 4236 1
4237 4234 1
4237 4235 1
4237 4236 1
4239 4242 1
4239 4246 1
4240 4243 1
4240 4244 1
4240 4245 1
4246 4243 1
4246 4244 1
4246 4245 1
4248 4251 1
4248 4255 1
4249 4252 1
4249 4253 1
4249 4254 1
4255 4252 1
4255 4253 1
4255 4254 1
4257 4260 1
4257 4265 1
4258 4261 1
4258 4263 1
4258 4264 1
4259 4262 1
4263 4262 1
4264 4262 1
4265 4261 1
4265 4263 1
4265 4264 1
4267 4270 1
4267 4274 1
4268 4271 1
4268 4272 1
4268 4273 1
4274 4271 1
4274 4272 1
4274 4273 1
4276 4279 1
4276 4282 1
4277 4280 1
4277 4281 1
4282 4280 1
4282 4281 1
4284 4287 1
4284 4292 1
4285 4288 1
4285 4290 1
4285 4291 1
4286 4289 1
4290 4289 1
4291 4289 1
4292 4288 1
4292 4290 1
4292 4291 1
4294 4297 1
4294 4301 1
4295 4298 1
4295 4299 1
4295 4300 1
4301 4298 1
4301 4299 1
4301 4300 1
4303 4306 1
4303 4310 1
4304 4307 1
4304 4308 1
4304 4309 1
4310 4307 1
4310 4308 1
4310 4309 1
4312 4315 1
4312 4318 1
4313 4316 1
4313 4317 1
4318 4316 1
4318 4317 1
4320 4323 1
4320 4327 1
4321 4324 1
4321 4325 1
4321 4326 1
4327 4324 1
4327 4325 1
4327 4326 1
4329 4332 1
4329 4335 1
4330 4333 1
4330 4334 1
4335 4333 1
4335 4334 1
4337 4340 1
4337 4344 1
4338 4341 1
4338 4342 1
4338 4343 1
4344 4341 1
4344 4342 1
4344 4343 1
4346 4349 1
4346 4353 1
4347 4350 1
4347 4351 1
4347 4352 1
4353 4350 1
4353 4351 1
4353 4352 1
4355 4358 1
4355 4361 1
4356 4359 1
4356 4360 1
4361 4359 1
4361 4360 1
4363 4366 1
4363 4369 1
4364 4367 1
4364 4368 1
4369 4367 1
4369 4368 1
4371 4374 1
4371 4377 1
4372 4375 1
4372 4376 1
4377 4375 1
4377 4376 1
4379 4382 1
4379 4386 1
4380 4383 1
4380 4384 1
4380 4385 1
4386 4383 1
4386 4384 1
4386 4385 1
4388 4391 1
4388 4395 1
4389 4392 1
4389 4393 1
4389 4394 1
4395 4392 1
4395 4393 1
4395 4394 1
4397 4400 1
4397 4405 1
4398 4401 1
4398 4403 1
4398 4404 1
4399 4402 1
4403 4402 1
4404 4402 1
4405 4401 1
4405 4403 1
4405 4404 1
4407 4410 1
4407 4414 1
4408 4411 1
4408 4412 1
4408 4413 1
4414 4411 1
4414 4412 1
4414 4413 1
4416 4419 1
4416 4423 1
4417 4420 1
4417 4421 1
4417 4422 1
4423 4420 1
4423 4421 1
4423 4422 1
4425 4428 1
4425 4432 1
4426 4429 1
4426 4430 1
4426 4431 1
4432 4429 1
4432 4430 1
4432 4431 1
4434 4437 1
4434 4441 1
4435 4438 1
4435 4439 1
4435 4440 1
4441 4438 1
4441 4439 1
4441 4440 1
4443 4446 1
4443 4450 1
4444 4447 1
4444 4448 1
4444 4449 1
4450 4447 1
4450 4448 1
4450 4449 1
4452 4455 1
4452 4459 1
4453 4456 1
4453 4457 1
4453 4458 1
4459 4456 1
4459 4457 1
4459 4458 1
4461 4464 1
4461 4468 1
4462 4465 1
4462 4466 1
4462 4467 1
4468 4465 1
4468 4466 1
4468 4467 1
4470 4473 1
4470 4477 1
4471 4474 1
4471 4475 1
4471 4476 1
4477 4474 1
4477 4475 1
4477 4476 1
4479 4482 1
4479 4486 1
4480 4483 1
4480 4484 1
4480 4485 1
4486 4483 1
4486 4484 1
4486 4485 1
4488 4491 1
4488 4494 1
4489 4492 1
4489 4493 1
4494 4492 1
4494 4493 1
4496 4499 1
4496 4503 1
4497 4500 1
4497 4501 1
4497 4502 1
4503 4500 1
4503 4501 1
4503 4502 1
4505 4508 1
4505 4511 1
4506 4509 1
4506 4510 1
4511 4509 1
4511 4510 1
4513 4516 1
4513 4520 1
4514 4517 1
4514 4518 1
4514 4519 1
4520 4517 1
4520 4518 1
4520 4519 1
4522 4525 1
4522 4528 1
4523 4526 1
4523 4527 1
4528 4526 1
4528 4527 1
4530 4533 1
4530 4537 1
4531 4534 1
4531 4535 1
4531 4536 1
4537 4534 1
4537 4535 1
4537 4536 1
4539 4542 1
4539 4545 1
4540 4543 1
4540 4544 1
4545 4543 1
4545 4544 1
4547 4550 1
4547 4553 1
4548 4551 1
4548 4552 1
4553 4551 1
4553 4552 1
4555 4558 1
4555 4562 1
4556 4559 1
4556 4560 1
4556 4561 1
4562 4559 1
4562 4560 1
4562 4561 1
4564 4567 1
4564 4571 1
4565 4568 1
4565 4569 1
4565 4570 1
4571 4568 1
4571 4569 1
4571 4570 1
4573 4576 1
4573 4579 1
4574 4577 1
4574 4578 1
4579 4577 1
4579 4578 1
4581 4584 1
4581 4588 1
4582 4585 1
4582 4586 1
4582 4587 1
4588 4585 1
4588 4586 1
4588 4587 1
4590 4593 1
4590 4597 1
4591 4594 1
4591 4595 1
4591 4596 1
4597 4594 1
4597 4595 1
4597 4596 1
4599 4602 1
4599 4606 1
4600 4603 1
4600 4604 1
4600 4605 1
4606 4603 1
4606 4604 1
4606 4605 1
4608 4611 1
4608 4614 1
4609 4612 1
4609 4613 1
4614 4612 1
4614 4613 1
4616 4619 1
4616 4623 1
4617 4620 1
4617 4621 1
4617 4622 1
4623 4620 1
4623 4621 1
4623 4622 1
4625 4628 1
4625 4633 1
4626 4629 1
4626 4631 1
4626 4632 1
4627 4630 1
4631 4630 1
4632 4630 1
4633 4629 1
4633 4631 1
4633 4632 1
4635 4638 1
4635 4642 1
4636 4639 1
4636 4640 1
4636 4641 1
4642 4639 1
4642 4640 1
4642 4641 1
4644 4647 1
4644 4651 1
4645 4648 1
4645 4649 1
4645 4650 1
4651 4648 1
4651 4649 1
4651 4650 1
4653 4656 1
4653 4660 1
4654 4657 1
4654 4658 1
4654 4659 1
4660 4657 1
4660 4658 1
4660 4659 1
4662 4665 1
4662 4669 1
4663 4666 1
4663 4667 1
4663 4668 1
4669 4666 1
4669 4667 1
4669 4668 1
4671 4674 1
4671 4678 1
4672 4675 1
4672 4676 1
4672 4677 1
4678 4675 1
4678 4676 1
4678 4677 1
4680 4683 1
4680 4687 1
4681 4684 1
4681 4685 1
4681 4686 1
4687 4684 1
4687 4685 1
4687 4686 1
4689 4692 1
4689 4695 1
4690 4693 1
4690 4694 1
4695 4693 1
4695 4694 1
4697 4700 1
4697 4704 1
4698 4701 1
4698 4702 1
4698 4703 1
4704 4701 1
4704 4702 1
4704 4703 1
4706 4709 1
4706 4712 1
4707 4710 1
4707 4711 1
4712 4710 1
4712 4711 1
4714 4717 1
4714 4721 1
4715 4718 1
4715 4719 1
4715 4720 1
4721 4718 1
4721 4719 1
4721 4720 1
4723 4726 1
4723 4730 1
4724 4727 1
4724 4728 1
4724 4729 1
4730 4727 1
4730 4728 1
4730 4729 1
4732 4735 1
4732 4739 1
4733 4736 1
4733 4737 1
4733 4738 1
4739 4736 1
4739 4737 1
4739 4738 1
4741 4744 1
4741 4749 1
4742 4745 1
4742 4747 1
4742 4748 1
4743 4746 1
4747 4746 1
4748 4746 1
4749 4745 1
4749 4747 1
4749 4748 1
4751 4754 1
4751 4758 1
4752 4755 1
4752 4756 1
4752 4757 1
4758 4755 1
4758 4756 1
4758 4757 1
4760 4763 1
4760 4767 1
4761 4764 1
4761 4765 1
4761 4766 1
4767 4764 1
4767 4765 1
4767 4766 1
4769 4772 1
4769 4776 1
4770 4773 1
4770 4774 1
4770 4775 1
4776 4773 1
4776 4774 1
4776 4775 1
4778 4781 1
4778 4785 1
4779 4782 1
4779 4783 1
4779 4784 1
4785 4782 1
4785 4783 1
4785 4784 1
4787 4790 1
4787 4794 1
4788 4791 1
4788 4792 1
4788 4793 1
4794 4791 1
4794 4792 1
4794 4793 1
4796 4799 1
4796 4802 1
4797 4800 1
4797 4801 1
4802 4800 1
4802 4801 1
4804 4807 1
4804 4811 1
4805 4808 1
4805 4809 1
4805 4810 1
4811 4808 1
4811 4809 1
4811 4810 1
4813 4816 1
4813 4820 1
4814 4817 1
4814 4818 1
4814 4819 1
4820 4817 1
4820 4818 1
4820 4819 1
4822 4825 1
4822 4829 1
4823 4826 1
4823 4827 1
4823 4828 1
4829 4826 1
4829 4827 1
4829 4828 1
4831 4834 1
4831 4837 1
4832 4835 1
4832 4836 1
4837 4835 1
4837 4836 1
4839 4842 1
4839 4845 1
4840 4843 1
4840 4844 1
4845 4843 1
4845 4844 1
4847 4850 1
4847 4854 1
4848 4851 1
4848 4852 1
4848 4853 1
4854 4851 1
4854 4852 1
4854 4853 1
4856 4859 1
4856 4863 1
4857 4860 1
4857 4861 1
4857 4862 1
4863 4860 1
4863 4861 1
4863 4862 1
4865 4868 1
4865 4871 1
4866 4869 1
4866 4870 1
4871 4869 1
4871 4870 1
4873 4876 1
4873 4880 1
4874 4877 1
4874 4878 1
4874 4879 1
4880 4877 1
4880 4878 1
4880 4879 1
4882 4885 1
4882 4889 1
4883 4886 1
4883 4887 1
4883 4888 1
4889 4886 1
4889 4887 1
4889 4888 1
4891 4894 1
4891 4898 1
4892 4895 1
4892 4896 1
4892 4897 1
4898 4895 1
4898 4896 1
4898 4897 1
4900 4903 1
4900 4907 1
4901 4904 1
4901 4905 1
4901 4906 1
4907 4904 1
4907 4905 1
4907 4906 1
4909 4912 1
4909 4915 1
4910 4913 1
4910 4914 1
4915 4913 1
4915 4914 1
4917 4920 1
4917 4923 1
4918 4921 1
4918 4922 1
4923 4921 1
4923 4922 1
4925 4928 1
4925 4932 1
4926 4929 1
4926 4930 1
4926 4931 1
4932 4929 1
4932 4930 1
4932 4931 1
4934 4937 1
4934 4941 1
4935 4938 1
4935 4939 1
4935 4940 1
4941 4938 1
4941 4939 1
4941 4940 1
4943 4946 1
4943 4951 1
4944 4947 1
4944 4949 1
4944 4950 1
4945 4948 1
4949 4948 1
4950 4948 1
4951 4947 1
4951 4949 1
4951 4950 1
4953 4956 1
4953 4959 1
4954 4957 1
4954 4958 1
4959 4957 1
4959 4958 1
4961 4964 1
4961 4967 1
4962 4965 1
4962 4966 1
4967 4965 1
4967 4966 1
4969 4972 1
4969 4975 1
4970 4973 1
4970 4974 1
4975 4973 1
4975 4974 1
4977 4980 1
4977 4984 1
4978 4981 1
4978 4982 1
4978 4983 1
4984 4981 1
4984 4982 1
4984 4983 1
4986 4989 1
4986 4993 1
4987 4990 1
4987 4991 1
4987 4992 1
4993 4990 1
4993 4991 1
4993 4992 1
4995 4998 1
4995 5002 1
4996 4999 1
4996 5000 1
4996 5001 1
5002 4999 1
5002 5000 1
5002 5001 1
5004 5007 1
5004 5012 1
5005 5008 1
5005 5010 1
5005 5011 1
5006 5009 1
5010 5009 1
5011 5009 1
5012 5008 1
5012 5010 1
5012 5011 1
5014 5017 1
5014 5021 1
5015 5018 1
5015 5019 1
5015 5020 1
5021 5018 1
5021 5019 1
5021 5020 1
5023 5026 1
5023 5029 1
5024 5027 1
5024 5028 1
5029 5027 1
5029 5028 1
5031 5034 1
5031 5038 1
5032 5035 1
5032 5036 1
5032 5037 1
5038 5035 1
5038 5036 1
5038 5037 1
5040 5043 1
5040 5046 1
5041 5044 1
5041 5045 1
5046 5044 1
5046 5045 1
5048 5051 1
5048 5056 1
5049 5052 1
5049 5054 1
5049 5055 1
5050 5053 1
5054 5053 1
5055 5053 1
5056 5052 1
5056 5054 1
5056 5055 1
5058 5061 1
5058 5064 1
5059 5062 1
5059 5063 1
5064 5062 1
5064 5063 1
5066 5069 1
5066 5073 1
5067 5070 1
5067 5071 1
5067 5072 1
5073 5070 1
5073 5071 1
5073 5072 1
5075 5078 1
5075 5082 1
5076 5079 1
5076 5080 1
5076 5081 1
5082 5079 1
5082 5080 1
5082 5081 1
5084 5087 1
5084 5091 1
5085 5088 1
5085 5089 1
5085 5090 1
5091 5088 1
5091 5089 1
5091 5090 1
5093 5096 1
5093 5101 1
5094 5097 1
5094 5099 1
5094 5100 1
5095 5098 1
5099 5098 1
5100 5098 1
5101 5097 1
5101 5099 1
5101 5100 1
5103 5106 1
5103 5110 1
5104 5107 1
5104 5108 1
5104 5109 1
5110 5107 1
5110 5108 1
5110 5109 1
5112 5115 1
5112 5120 1
5113 5116 1
5113 5118 1
5113 5119 1
5114 5117 1
5118 5117 1
5119 5117 1
5120 5116 1
5120 5118 1
5120 5119 1
5122 5125 1
5122 5130 1
5123 5126 1
5123 5128 1
5123 5129 1
5124 5127 1
5128 5127 1
5129 5127 1
5130 5126 1
5130 5128 1
5130 5129 1
5132 5135 1
5132 5139 1
5133 5136 1
5133 5137 1
5133 5138 1
5139 5136 1
5139 5137 1
5139 5138 1
5141 5144 1
5141 5148 1
5142 5145 1
5142 5146 1
5142 5147 1
5148 5145 1
5148 5146 1
5148 5147 1
5150 5153 1
5150 5156 1
5151 5154 1
5151 5155 1
5156 5154 1
5156 5155 1
5158 5161 1
5158 5165 1
5159 5162 1
5159 5163 1
5159 5164 1
5165 5162 1
5165 5163 1
5165 5164 1
5167 5170 1
5167 5174 1
5168 5171 1
5168 5172 1
5168 5173 1
5174 5171 1
5174 5172 1
5174 5173 1
5176 5179 1
5176 5182 1
5177 5180 1
5177 5181 1
5182 5180 1
5182 5181 1
5184 5187 1
5184 5191 1
5185 5188 1
5185 5189 1
5185 5190 1
5191 5188 1
5191 5189 1
5191 5190 1
5193 5196 1
5193 5200 1
5194 5197 1
5194 5198 1
5194 5199 1
5200 5197 1
5200 5198 1
5200 5199 1
5202 5205 1
5202 5209 1
5203 5206 1
5203 5207 1
5203 5208 1
5209 5206 1
5209 5207 1
5209 5208 1
5211 5214 1
5211 5219 1
5212 5215 1
5212 5217 1
5212 5218 1
5213 5216 1
5217 5216 1
5218 5216 1
5219 5215 1
5219 5217 1
5219 5218 1
5221 5224 1
5221 5228 1
5222 5225 1
5222 5226 1
5222 5227 1
5228 5225 1
5228 5226 1
5228 5227 1
5230 5233 1
5230 5236 1
5231 5234 1
5231 5235 1
5236 5234 1
5236 5235 1
5238 5241 1
5238 5245 1
5239 5242 1
5239 5243 1
5239 5244 1
5245 5242 1
5245 5243 1
5245 5244 1
5247 5250 1
5247 5253 1
5248 5251 1
5248 5252 1
5253 5251 1
5253 5252 1
5255 5258 1
5255 5263 1
5256 5259 1
5256 5261 1
5256 5262 1
5257 5260 1
5261 5260 1
5262 5260 1
5263 5259 1
5263 5261 1
5263 5262 1
5265 5268 1
5265 5272 1
5266 5269 1
5266 5270 1
5266 5271 1
5272 5269 1
5272 5270 1
5272 5271 1
5274 5277 1
5274 5281 1
5275 5278 1
5275 5279 1
5275 5280 1
5281 5278 1
5281 5279 1
5281 5280 1
5283 5286 1
5283 5289 1
5284 5287 1
5284 5288 1
5289 5287 1
5289 5288 1
5291 5294 1
5291 5298 1
5292 5295 1
5292 5296 1
5292 5297 1
5298 5295 1
5298 5296 1
5298 5297 1
5300 5303 1
5300 5306 1
5301 5304 1
5301 5305 1
5306 5304 1
5306 5305 1
5308 5311 1
5308 5314 1
5309 5312 1
5309 5313 1
5314 5312 1
5314 5313 1
5316 5319 1
5316 5323 1
5317 5320 1
5317 5321 1
5317 5322 1
5323 5320 1
5323 5321 1
5323 5322 1
5325 5328 1
5325 5333 1
5326 5329 1
5326 5331 1
5326 5332 1
5327 5330 1
5331 5330 1
5332 5330 1
5333 5329 1
5333 5331 1
5333 5332 1
5335 5338 1
5335 5341 1
5336 5339 1
5336 5340 1
5341 5339 1
5341 5340 1
5343 5346 1
5343 5349 1
5344 5347 1
5344 5348 1
5349 5347 1
5349 5348 1
5351 5354 1
5351 5357 1
5352 5355 1
5352 5356 1
5357 5355 1
5357 5356 1
5359 5362 1
5359 5366 1
5360 5363 1
5360 5364 1
5360 5365 1
5366 5363 1
5366 5364 1
5366 5365 1
5368 5371 1
5368 5374 1
5369 5372 1
5369 5373 1
5374 5372 1
5374 5373 1
5376 5379 1
5376 5384 1
5377 5380 1
5377 5382 1
5377 5383 1
5378 5381 1
5382 5381 1
5383 5381 1
5384 5380 1
5384 5382 1
5384 5383 1
5386 5389 1
5386 5394 1
5387 5390 1
5387 5392 1
5387 5393 1
5388 5391 1
5392 5391 1
5393 5391 1
5394 5390 1
5394 5392 1
5394 5393 1
5396 5399 1
5396 5402 1
5397 5400 1
5397 5401 1
5402 5400 1
5402 5401 1
5404 5407 1
5404 5410 1
5405 5408 1
5405 5409 1
5410 5408 1
5410 5409 1
5412 5415 1
5412 5418 1
5413 5416 1
5413 5417 1
5418 5416 1
5418 5417 1
5420 5423 1
5420 5426 1
5421 5424 1
5421 5425 1
5426 5424 1
5426 5425 1
5428 5431 1
5428 5435 1
5429 5432 1
5429 5433 1
5429 5434 1
5435 5432 1
5435 5433 1
5435 5434 1
5437 5440 1
5437 5444 1
5438 5441 1
5438 5442 1
5438 5443 1
5444 5441 1
5444 5442 1
5444 5443 1
5446 5449 1
5446 5453 1
5447 5450 1
5447 5451 1
5447 5452 1
5453 5450 1
5453 5451 1
5453 5452 1
5455 5458 1
5455 5462 1
5456 5459 1
5456 5460 1
5456 5461 1
5462 5459 1
5462 5460 1
5462 5461 1
5464 5467 1
5464 5470 1
5465 5468 1
5465 5469 1
5470 5468 1
5470 5469 1
5472 5475 1
5472 5479 1
5473 5476 1
5473 5477 1
5473 5478 1
5479 5476 1
5479 5477 1
5479 5478 1
5481 5484 1
5481 5488 1
5482 5485 1
5482 5486 1
5482 5487 1
5488 5485 1
5488 5486 1
5488 5487 1
5490 5493 1
5490 5496 1
5491 5494 1
5491 5495 1
5496 5494 1
5496 5495 1
5498 5501 1
5498 5506 1
5499 5502 1
5499 5504 1
5499 5505 1
5500 5503 1
5504 5503 1
5505 5503 1
5506 5502 1
5506 5504 1
5506 5505 1
5508 5511 1
5508 5514 1
5509 5512 1
5509 5513 1
5514 5512 1
5514 5513 1
5516 5519 1
5516 5522 1
5517 5520 1
5517 5521 1
5522 5520 1
5522 5521 1
5524 5527 1
5524 5531 1
5525 5528 1
5525 5529 1
5525 5530 1
5531 5528 1
5531 5529 1
5531 5530 1
5533 5536 1
5533 5540 1
5534 5537 1
5534 5538 1
5534 5539 1
5540 5537 1
5540 5538 1
5540 5539 1
5542 5545 1
5542 5548 1
5543 5546 1
5543 5547 1
5548 5546 1
5548 5547 1
5550 5553 1
5550 5558 1
5551 5554 1
5551 5556 1
5551 5557 1
5552 5555 1
5556 5555 1
5557 5555 1
5558 5554 1
5558 5556 1
5558 5557 1
5560 5563 1
5560 5567 1
5561 5564 1
5561 5565 1
5561 5566 1
5567 5564 1
5567 5565 1
5567 5566 1
5569 5572 1
5569 5576 1
5570 5573 1
5570 5574 1
5570 5575 1
5576 5573 1
5576 5574 1
5576 5575 1
5578 5581 1
5578 5584 1
5579 5582 1
5579 5583 1
5584 5582 1
5584 5583 1
5586 5589 1
5586 5592 1
5587 5590 1
5587 5591 1
5592 5590 1
5592 5591 1
5594 5597 1
5594 5600 1
5595 5598 1
5595 5599 1
5600 5598 1
5600 5599 1
5602 5605 1
5602 5608 1
5603 5606 1
5603 5607 1
5608 5606 1
5608 5607 1
5610 5613 1
5610 5616 1
5611 5614 1
5611 5615 1
5616 5614 1
5616 5615 1
5618 5621 1
5618 5625 1
5619 5622 1
5619 5623 1
5619 5624 1
5625 5622 1
5625 5623 1
5625 5624 1
5627 5630 1
5627 5634 1
5628 5631 1
5628 5632 1
5628 5633 1
5634 5631 1
5634 5632 1
5634 5633 1
5636 5639 1
5636 5642 1
5637 5640 1
5637 5641 1
5642 5640 1
5642 5641 1
5644 5647 1
5644 5651 1
5645 5648 1
5645 5649 1
5645 5650 1
5651 5648 1
5651 5649 1
5651 5650 1
5653 5656 1
5653 5661 1
5654 5657 1
5654 5659 1
5654 5660 1
5655 5658 1
5659 5658 1
5660 5658 1
5661 5657 1
5661 5659 1
5661 5660 1
5663 5666 1
5663 5669 1
5664 5667 1
5664 5668 1
5669 5667 1
5669 5668 1
5671 5674 1
5671 5678 1
5672 5675 1
5672 5676 1
5672 5677 1
5678 5675 1
5678 5676 1
5678 5677 1
5680 5683 1
5680 5687 1
5681 5684 1
5681 5685 1
5681 5686 1
5687 5684 1
5687 5685 1
5687 5686 1
5689 5692 1
5689 5696 1
5690 5693 1
5690 5694 1
5690 5695 1
5696 5693 1
5696 5694 1
5696 5695 1
5698 5701 1
5698 5705 1
5699 5702 1
5699 5703 1
5699 5704 1
5705 5702 1
5705 5703 1
5705 5704 1
5707 5710 1
5707 5713 1
5708 5711 1
5708 5712 1
5713 5711 1
5713 5712 1
5715 5718 1
5715 5721 1
5716 5719 1
5716 5720 1
5721 5719 1
5721 5720 1
5723 5726 1
5723 5731 1
5724 5727 1
5724 5729 1
5724 5730 1
5725 5728 1
5729 5728 1
5730 5728 1
5731 5727 1
5731 5729 1
5731 5730 1
5733 5736 1
5733 5740 1
5734 5737 1
5734 5738 1
5734 5739 1
5740 5737 1
5740 5738 1
5740 5739 1
5742 5745 1
5742 5749 1
5743 5746 1
5743 5747 1
5743 5748 1
5749 5746 1
5749 5747 1
5749 5748 1
5751 5754 1
5751 5758 1
5752 5755 1
5752 5756 1
5752 5757 1
5758 5755 1
5758 5756 1
5758 5757 1
5760 5763 1
5760 5767 1
5761 5764 1
5761 5765 1
5761 5766 1
5767 5764 1
5767 5765 1
5767 5766 1
5769 5772 1
5769 5776 1
5770 5773 1
5770 5774 1
5770 5775 1
5776 5773 1
5776 5774 1
5776 5775 1
5778 5781 1
5778 5785 1
5779 5782 1
5779 5783 1
5779 5784 1
5785 5782 1
5785 5783 1
5785 5784 1
5787 5790 1
5787 5794 1
5788 5791 1
5788 5792 1
5788 5793 1
5794 5791 1
5794 5792 1
5794 5793 1
5796 5799 1
5796 5802 1
5797 5800 1
5797 5801 1
5802 5800 1
5802 5801 1
5804 5807 1
5804 5811 1
5805 5808 1
5805 5809 1
5805 5810 1
5811 5808 1
5811 5809 1
5811 5810 1
5813 5816 1
5813 5820 1
5814 5817 1
5814 5818 1
5814 5819 1
5820 5817 1
5820 5818 1
5820 5819 1
5822 5825 1
5822 5828 1
5823 5826 1
5823 5827 1
5828 5826 1
5828 5827 1
5830 5833 1
5830 5836 1
5831 5834 1
5831 5835 1
5836 5834 1
5836 5835 1
5838 5841 1
5838 5844 1
5839 5842 1
5839 5843 1
5844 5842 1
5844 5843 1
5846 5849 1
5846 5853 1
5847 5850 1
5847 5851 1
5847 5852 1
5853 5850 1
5853 5851 1
5853 5852 1
5855 5858 1
5855 5861 1
5856 5859 1
5856 5860 1
5861 5859 1
5861 5860 1
5863 5866 1
5863 5870 1
5864 5867 1
5864 5868 1
5864 5869 1
5870 5867 1
5870 5868 1
5870 5869 1
5872 5875 1
5872 5878 1
5873 5876 1
5873 5877 1
5878 5876 1
5878 5877 1
5880 5883 1
5880 5887 1
5881 5884 1
5881 5885 1
5881 5886 1
5887 5884 1
5887 5885 1
5887 5886 1
5889 5892 1
5889 5895 1
5890 5893 1
5890 5894 1
5895 5893 1
5895 5894 1
5897 5900 1
5897 5903 1
5898 5901 1
5898 5902 1
5903 5901 1
5903 5902 1
5905 5908 1
5905 5912 1
5906 5909 1
5906 5910 1
5906 5911 1
5912 5909 1
5912 5910 1
5912 5911 1
5914 5917 1
5914 5921 1
5915 5918 1
5915 5919 1
5915 5920 1
5921 5918 1
5921 5919 1
5921 5920 1
5923 5926 1
5923 5930 1
5924 5927 1
5924 5928 1
5924 5929 1
5930 5927 1
5930 5928 1
5930 5929 1
5932 5935 1
5932 5938 1
5933 5936 1
5933 5937 1
5938 5936 1
5938 5937 1
5940 5943 1
5940 5947 1
5941 5944 1
5941 5945 1
5941 5946 1
5947 5944 1
5947 5945 1
5947 5946 1
5949 5952 1
5949 5955 1
5950 5953 1
5950 5954 1
5955 5953 1
5955 5954 1
5957 5960 1
5957 5964 1
5958 5961 1
5958 5962 1
5958 5963 1
5964 5961 1
5964 5962 1
5964 5963 1
5966 5969 1
5966 5972 1
5967 5970 1
5967 5971 1
5972 5970 1
5972 5971 1
5974 5977 1
5974 5981 1
5975 5978 1
5975 5979 1
5975 5980 1
5981 5978 1
5981 5979 1
5981 5980 1
5983 5986 1
5983 5990 1
5984 5987 1
5984 5988 1
5984 5989 1
5990 5987 1
5990 5988 1
5990 5989 1
5992 5995 1
5992 5999 1
5993 5996 1
5993 5997 1
5993 5998 1
5999 5996 1
5999 5997 1
5999 5998 1
6001 6004 1
6001 6007 1
6002 6005 1
6002 6006 1
6007 6005 1
6007 6006 1
6009 6012 1
6009 6017 1
6010 6013 1
6010 6015 1
6010 6016 1
6011 6014 1
6015 6014 1
6016 6014 1
6017 6013 1
6017 6015 1
6017 6016 1
6019 6022 1
6019 6025 1
6020 6023 1
6020 6024 1
6025 6023 1
6025 6024 1
6027 6030 1
6027 6033 1
6028 6031 1
6028 6032 1
6033 6031 1
6033 6032 1
6035 6038 1
6035 6041 1
6036 6039 1
6036 6040 1
6041 6039 1
6041 6040 1
6043 6046 1
6043 6050 1
6044 6047 1
6044 6048 1
6044 6049 1
6050 6047 1
6050 6048 1
6050 6049 1
6052 6055 1
6052 6060 1
6053 6056 1
6053 6058 1
6053 6059 1
6054 6057 1
6058 6057 1
6059 6057 1
6060 6056 1
6060 6058 1
6060 6059 1
6062 6065 1
6062 6068 1
6063 6066 1
6063 6067 1
6068 6066 1
6068 6067 1
6070 6073 1
6070 6077 1
6071 6074 1
6071 6075 1
6071 6076 1
6077 6074 1
6077 6075 1
6077 6076 1
6079 6082 1
6079 6086 1
6080 6083 1
6080 6084 1
6080 6085 1
6086 6083 1
6086 6084 1
6086 6085 1
6088 6091 1
6088 6095 1
6089 6092 1
6089 6093 1
6089 6094 1
6095 6092 1
6095 6093 1
6095 6094 1
6097 6100 1
6097 6104 1
6098 6101 1
6098 6102 1
6098 6103 1
6104 6101 1
6104 6102 1
6104 6103 1
6106 6109 1
6106 6112 1
6107 6110 1
6107 6111 1
6112 6110 1
6112 6111 1
6114 6117 1
6114 6121 1
6115 6118 1
6115 6119 1
6115 6120 1
6121 6118 1
6121 6119 1
6121 6120 1
6123 6126 1
6123 6130 1
6124 6127 1
6124 6128 1
6124 6129 1
6130 6127 1
6130 6128 1
6130 6129 1
6132 6135 1
6132 6138 1
6133 6136 1
6133 6137 1
6138 6136 1
6138 6137 1
6140 6143 1
6140 6147 1
6141 6144 1
6141 6145 1
6141 6146 1
6147 6144 1
6147 6145 1
6147 6146 1
6149 6152 1
6149 6156 1
6150 6153 1
6150 6154 1
6150 6155 1
6156 6153 1
6156 6154 1
6156 6155 1
6158 6161 1
6158 6165 1
6159 6162 1
6159 6163 1
6159 6164 1
6165 6162 1
6165 6163 1
6165 6164 1
6167 6170 1
6167 6175 1
6168 6171 1
6168 6173 1
6168 6174 1
6169 6172 1
6173 6172 1
6174 6172 1
6175 6171 1
6175 6173 1
6175 6174 1
6177 6180 1
6177 6184 1
6178 6181 1
6178 6182 1
6178 6183 1
6184 6181 1
6184 6182 1
6184 6183 1
6186 6189 1
6186 6193 1
6187 6190 1
6187 6191 1
6187 6192 1
6193 6190 1
6193 6191 1
6193 6192 1
6195 6198 1
6195 6201 1
6196 6199 1
6196 6200 1
6201 6199 1
6201 6200 1
6203 6206 1
6203 6210 1
6204 6207 1
6204 6208 1
6204 6209 1
6210 6207 1
6210 6208 1
6210 6209 1
6212 6215 1
6212 6219 1
6213 6216 1
6213 6217 1
6213 6218 1
6219 6216 1
6219 6217 1
6219 6218 1
6221 6224 1
6221 6229 1
6222 6225 1
6222 6227 1
6222 6228 1
6223 6226 1
6227 6226 1
6228 6226 1
6229 6225 1
6229 6227 1
6229 6228 1
6231 6234 1
6231 6238 1
6232 6235 1
6232 6236 1
6232 6237 1
6238 6235 1
6238 6236 1
6238 6237 1
6240 6243 1
6240 6248 1
6241 6244 1
6241 6246 1
6241 6247 1
6242 6245 1
6246 6245 1
6247 6245 1
6248 6244 1
6248 6246 1
6248 6247 1
6250 6253 1
6250 6256 1
6251 6254 1
6251 6255 1
6256 6254 1
6256 6255 1
6258 6261 1
6258 6266 1
6259 6262 1
6259 6264 1
6259 6265 1
6260 6263 1
6264 6263 1
6265 6263 1
6266 6262 1
6266 6264 1
6266 6265 1
6268 6271 1
6268 6275 1
6269 6272 1
6269 6273 1
6269 6274 1
6275 6272 1
6275 6273 1
6275 6274 1
6277 6280 1
6277 6283 1
6278 6281 1
6278 6282 1
6283 6281 1
6283 6282 1
6285 6288 1
6285 6292 1
6286 6289 1
6286 6290 1
6286 6291 1
6292 6289 1
6292 6290 1
6292 6291 1
6294 6297 1
6294 6300 1
6295 6298 1
6295 6299 1
6300 6298 1
6300 6299 1
6302 6305 1
6302 6310 1
6303 6306 1
6303 6308 1
6303 6309 1
6304 6307 1
6308 6307 1
6309 6307 1
6310 6306 1
6310 6308 1
6310 6309 1
6312 6315 1
6312 6319 1
6313 6316 1
6313 6317 1
6313 6318 1
6319 6316 1
6319 6317 1
6319 6318 1
6321 6324 1
6321 6329 1
6322 6325 1
6322 6327 1
6322 6328 1
6323 6326 1
6327 6326 1
6328 6326 1
6329 6325 1
6329 6327 1
6329 6328 1
6331 6334 1
6331 6339 1
6332 6335 1
6332 6337 1
6332 6338 1
6333 6336 1
6337 6336 1
6338 6336 1
6339 6335 1
6339 6337 1
6339 6338 1
6341 6344 1
6341 6348 1
6342 6345 1
6342 6346 1
6342 6347 1
6348 6345 1
6348 6346 1
6348 6347 1
6350 6353 1
6350 6357 1
6351 6354 1
6351 6355 1
6351 6356 1
6357 6354 1
6357 6355 1
6357 6356 1
6359 6362 1
6359 6365 1
6360 6363 1
6360 6364 1
6365 6363 1
6365 6364 1
6367 6370 1
6367 6373 1
6368 6371 1
6368 6372 1
6373 6371 1
6373 6372 1
6375 6378 1
6375 6382 1
6376 6379 1
6376 6380 1
6376 6381 1
6382 6379 1
6382 6380 1
6382 6381 1
6384 6387 1
6384 6392 1
6385 6388 1
6385 6390 1
6385 6391 1
6386 6389 1
6390 6389 1
6391 6389 1
6392 6388 1
6392 6390 1
6392 6391 1
6394 6397 1
6394 6401 1
6395 6398 1
6395 6399 1
6395 6400 1
6401 6398 1
6401 6399 1
6401 6400 1
6403 6406 1
6403 6409 1
6404 6407 1
6404 6408 1
6409 6407 1
6409 6408 1
6411 6414 1
6411 6417 1
6412 6415 1
6412 6416 1
6417 6415 1
6417 6416 1
6419 6422 1
6419 6426 1
6420 6423 1
6420 6424 1
6420 6425 1
6426 6423 1
6426 6424 1
6426 6425 1
6428 6431 1
6428 6435 1
6429 6432 1
6429 6433 1
6429 6434 1
6435 6432 1
6435 6433 1
6435 6434 1
6437 6440 1
6437 6443 1
6438 6441 1
6438 6442 1
6443 6441 1
6443 6442 1
6445 6448 1
6445 6451 1
6446 6449 1
6446 6450 1
6451 6449 1
6451 6450 1
6453 6456 1
6453 6460 1
6454 6457 1
6454 6458 1
6454 6459 1
6460 6457 1
6460 6458 1
6460 6459 1
6462 6465 1
6462 6470 1
6463 6466 1
6463 6468 1
6463 6469 1
6464 6467 1
6468 6467 1
6469 6467 1
6470 6466 1
6470 6468 1
6470 6469 1
6472 6475 1
6472 6480 1
6473 6476 1
6473 6478 1
6473 6479 1
6474 6477 1
6478 6477 1
6479 6477 1
6480 6476 1
6480 6478 1
6480 6479 1
6482 6485 1
6482 6489 1
6483 6486 1
6483 6487 1
6483 6488 1
6489 6486 1
6489 6487 1
6489 6488 1
6491 6494 1
6491 6497 1
6492 6495 1
6492 6496 1
6497 6495 1
6497 6496 1
6499 6502 1
6499 6506 1
6500 6503 1
6500 6504 1
6500 6505 1
6506 6503 1
6506 6504 1
6506 6505 1
6508 6511 1
6508 6515 1
6509 6512 1
6509 6513 1
6509 6514 1
6515 6512 1
6515 6513 1
6515 6514 1
6517 6520 1
6517 6523 1
6518 6521 1
6518 6522 1
6523 6521 1
6523 6522 1
6525 6528 1
6525 6531 1
6526 6529 1
6526 6530 1
6531 6529 1
6531 6530 1
6533 6536 1
6533 6540 1
6534 6537 1
6534 6538 1
6534 6539 1
6540 6537 1
6540 6538 1
6540 6539 1
6542 6545 1
6542 6548 1
6543 6546 1
6543 6547 1
6548 6546 1
6548 6547 1
6550 6553 1
6550 6556 1
6551 6554 1
6551 6555 1
6556 6554 1
6556 6555 1
6558 6561 1
6558 6565 1
6559 6562 1
6559 6563 1
6559 6564 1
6565 6562 1
6565 6563 1
6565 6564 1
6567 6570 1
6567 6574 1
6568 6571 1
6568 6572 1
6568 6573 1
6574 6571 1
6574 6572 1
6574 6573 1
6576 6579 1
6576 6582 1
6577 6580 1
6577 6581 1
6582 6580 1
6582 6581 1
6584 6587 1
6584 6590 1
6585 6588 1
6585 6589 1
6590 6588 1
6590 6589 1
6592 6595 1
6592 6599 1
6593 6596 1
6593 6597 1
6593 6598 1
6599 6596 1
6599 6597 1
6599 6598 1
6601 6604 1
6601 6607 1
6602 6605 1
6602 6606 1
6607 6605 1
6607 6606 1
6609 6612 1
6609 6615 1
6610 6613 1
6610 6614 1
6615 6613 1
6615 6614 1
6617 6620 1
6617 6623 1
6618 6621 1
6618 6622 1
6623 6621 1
6623 6622 1
6625 6628 1
6625 6632 1
6626 6629 1
6626 6630 1
6626 6631 1
6632 6629 1
6632 6630 1
6632 6631 1
6634 6637 1
6634 6640 1
6635 6638 1
6635 6639 1
6640 6638 1
6640 6639 1
6642 6645 1
6642 6648 1
6643 6646 1
6643 6647 1
6648 6646 1
6648 6647 1
6650 6653 1
6650 6656 1
6651 6654 1
6651 6655 1
6656 6654 1
6656 6655 1
6658 6661 1
6658 6664 1
6659 6662 1
6659 6663 1
6664 6662 1
6664 6663 1
6666 6669 1
6666 6672 1
6667 6670 1
6667 6671 1
6672 6670 1
6672 6671 1
6674 6677 1
6674 6680 1
6675 6678 1
6675 6679 1
6680 6678 1
6680 6679 1
6682 6685 1
6682 6689 1
6683 6686 1
6683 6687 1
6683 6688 1
6689 6686 1
6689 6687 1
6689 6688 1
6691 6694 1
6691 6698 1
6692 6695 1
6692 6696 1
6692 6697 1
6698 6695 1
6698 6696 1
6698 6697 1
6700 6703 1
6700 6707 1
6701 6704 1
6701 6705 1
6701 6706 1
6707 6704 1
6707 6705 1
6707 6706 1
6709 6712 1
6709 6715 1
6710 6713 1
6710 6714 1
6715 6713 1
6715 6714 1
6717 6720 1
6717 6724 1
6718 6721 1
6718 6722 1
6718 6723 1
6724 6721 1
6724 6722 1
6724 6723 1
6726 6729 1
6726 6733 1
6727 6730 1
6727 6731 1
6727 6732 1
6733 6730 1
6733 6731 1
6733 6732 1
6735 6738 1
6735 6741 1
6736 6739 1
6736 6740 1
6741 6739 1
6741 6740 1
6743 6746 1
6743 6749 1
6744 6747 1
6744 6748 1
6749 6747 1
6749 6748 1
6751 6754 1
6751 6758 1
6752 6755 1
6752 6756 1
6752 6757 1
6758 6755 1
6758 6756 1
6758 6757 1
6760 6763 1
6760 6767 1
6761 6764 1
6761 6765 1
6761 6766 1
6767 6764 1
6767 6765 1
6767 6766 1
6769 6772 1
6769 6776 1
6770 6773 1
6770 6774 1
6770 6775 1
6776 6773 1
6776 6774 1
6776 6775 1
6778 6781 1
6778 6784 1
6779 6782 1
6779 6783 1
6784 6782 1
6784 6783 1
6786 6789 1
6786 6792 1
6787 6790 1
6787 6791 1
6792 6790 1
6792 6791 1
6794 6797 1
6794 6801 1
6795 6798 1
6795 6799 1
6795 6800 1
6801 6798 1
6801 6799 1
6801 6800 1
6803 6806 1
6803 6810 1
6804 6807 1
6804 6808 1
6804 6809 1
6810 6807 1
6810 6808 1
6810 6809 1
6812 6815 1
6812 6818 1
6813 6816 1
6813 6817 1
6818 6816 1
6818 6817 1
6820 6823 1
6820 6827 1
6821 6824 1
6821 6825 1
6821 6826 1
6827 6824 1
6827 6825 1
6827 6826 1
6829 6832 1
6829 6837 1
6830 6833 1
6830 6835 1
6830 6836 1
6831 6834 1
6835 6834 1
6836 6834 1
6837 6833 1
6837 6835 1
6837 6836 1
6839 6842 1
6839 6845 1
6840 6843 1
6840 6844 1
6845 6843 1
6845 6844 1
6847 6850 1
6847 6853 1
6848 6851 1
6848 6852 1
6853 6851 1
6853 6852 1
6855 6858 1
6855 6861 1
6856 6859 1
6856 6860 1
6861 6859 1
6861 6860 1
6863 6866 1
6863 6869 1
6864 6867 1
6864 6868 1
6869 6867 1
6869 6868 1
6871 6874 1
6871 6878 1
6872 6875 1
6872 6876 1
6872 6877 1
6878 6875 1
6878 6876 1
6878 6877 1
6880 6883 1
6880 6887 1
6881 6884 1
6881 6885 1
6881 6886 1
6887 6884 1
6887 6885 1
6887 6886 1
6889 6892 1
6889 6896 1
6890 6893 1
6890 6894 1
6890 6895 1
6896 6893 1
6896 6894 1
6896 6895 1
6898 6901 1
6898 6904 1
6899 6902 1
6899 6903 1
6904 6902 1
6904 6903 1
6906 6909 1
6906 6912 1
6907 6910 1
6907 6911 1
6912 6910 1
6912 6911 1
6914 6917 1
6914 6920 1
6915 6918 1
6915 6919 1
6920 6918 1
6920 6919 1
6922 6925 1
6922 6929 1
6923 6926 1
6923 6927 1
6923 6928 1
6929 6926 1
6929 6927 1
6929 6928 1
6931 6934 1
6931 6937 1
6932 6935 1
6932 6936 1
6937 6935 1
6937 6936 1
6939 6942 1
6939 6946 1
6940 6943 1
6940 6944 1
6940 6945 1
6946 6943 1
6946 6944 1
6946 6945 1
6948 6951 1
6948 6955 1
6949 6952 1
6949 6953 1
6949 6954 1
6955 6952 1
6955 6953 1
6955 6954 1
6957 6960 1
6957 6963 1
6958 6961 1
6958 6962 1
6963 6961 1
6963 6962 1
6965 6968 1
6965 6971 1
6966 6969 1
6966 6970 1
6971 6969 1
6971 6970 1
6973 6976 1
6973 6980 1
6974 6977 1
6974 6978 1
6974 6979 1
6980 6977 1
6980 6978 1
6980 6979 1
6982 6985 1
6982 6988 1
6983 6986 1
6983 6987 1
6988 6986 1
6988 6987 1
6990 6993 1
6990 6996 1
6991 6994 1
6991 6995 1
6996 6994 1
6996 6995 1
6998 7001 1
6998 7005 1
6999 7002 1
6999 7003 1
6999 7004 1
7005 7002 1
7005 7003 1
7005 7004 1
7007 7010 1
7007 7015 1
7008 7011 1
7008 7013 1
7008 7014 1
7009 7012 1
7013 7012 1
7014 7012 1
7015 7011 1
7015 7013 1
7015 7014 1
7017 7020 1
7017 7024 1
7018 7021 1
7018 7022 1
7018 7023 1
7024 7021 1
7024 7022 1
7024 7023 1
7026 7029 1
7026 7033 1
7027 7030 1
7027 7031 1
7027 7032 1
7033 7030 1
7033 7031 1
7033 7032 1
7035 7038 1
7035 7042 1
7036 7039 1
7036 7040 1
7036 7041 1
7042 7039 1
7042 7040 1
7042 7041 1
7044 7047 1
7044 7052 1
7045 7048 1
7045 7050 1
7045 7051 1
7046 7049 1
7050 7049 1
7051 7049 1
7052 7048 1
7052 7050 1
7052 7051 1
7054 7057 1
7054 7060 1
7055 7058 1
7055 7059 1
7060 7058 1
7060 7059 1
7062 7065 1
7062 7068 1
7063 7066 1
7063 7067 1
7068 7066 1
7068 7067 1
7070 7073 1
7070 7076 1
7071 7074 1
7071 7075 1
7076 7074 1
7076 7075 1
7078 7081 1
7078 7084 1
7079 7082 1
7079 7083 1
7084 7082 1
7084 7083 1
7086 7089 1
7086 7094 1
7087 7090 1
7087 7092 1
7087 7093 1
7088 7091 1
7092 7091 1
7093 7091 1
7094 7090 1
7094 7092 1
7094 7093 1
7096 7099 1
7096 7103 1
7097 7100 1
7097 7101 1
7097 7102 1
7103 7100 1
7103 7101 1
7103 7102 1
7105 7108 1
7105 7112 1
7106 7109 1
7106 7110 1
7106 7111 1
7112 7109 1
7112 7110 1
7112 7111 1
7114 7117 1
7114 7120 1
7115 7118 1
7115 7119 1
7120 7118 1
7120 7119 1
7122 7125 1
7122 7129 1
7123 7126 1
7123 7127 1
7123 7128 1
7129 7126 1
7129 7127 1
7129 7128 1
7131 7134 1
7131 7137 1
7132 7135 1
7132 7136 1
7137 7135 1
7137 7136 1
7139 7142 1
7139 7145 1
7140 7143 1
7140 7144 1
7145 7143 1
7145 7144 1
7147 7150 1
7147 7153 1
7148 7151 1
7148 7152 1
7153 7151 1
7153 7152 1
7155 7158 1
7155 7162 1
7156 7159 1
7156 7160 1
7156 7161 1
7162 7159 1
7162 7160 1
7162 7161 1
7164 7167 1
7164 7171 1
7165 7168 1
7165 7169 1
7165 7170 1
7171 7168 1
7171 7169 1
7171 7170 1
7173 7176 1
7173 7180 1
7174 7177 1
7174 7178 1
7174 7179 1
7180 7177 1
7180 7178 1
7180 7179 1
7182 7185 1
7182 7190 1
7183 7186 1
7183 7188 1
7183 7189 1
7184 7187 1
7188 7187 1
7189 7187 1
7190 7186 1
7190 7188 1
7190 7189 1
7192 7195 1
7192 7198 1
7193 7196 1
7193 7197 1
7198 7196 1
7198 7197 1
7200 7203 1
7200 7206 1
7201 7204 1
7201 7205 1
7206 7204 1
7206 7205 1
7208 7211 1
7208 7214 1
7209 7212 1
7209 7213 1
7214 7212 1
7214 7213 1
7216 7219 1
7216 7223 1
7217 7220 1
7217 7221 1
7217 7222 1
7223 7220 1
7223 7221 1
7223 7222 1
7225 7228 1
7225 7232 1
7226 7229 1
7226 7230 1
7226 7231 1
7232 7229 1
7232 7230 1
7232 7231 1
7234 7237 1
7234 7240 1
7235 7238 1
7235 7239 1
7240 7238 1
7240 7239 1
7242 7245 1
7242 7248 1
7243 7246 1
7243 7247 1
7248 7246 1
7248 7247 1
7250 7253 1
7250 7258 1
7251 7254 1
7251 7256 1
7251 7257 1
7252 7255 1
7256 7255 1
7257 7255 1
7258 7254 1
7258 7256 1
7258 7257 1
7260 7263 1
7260 7266 1
7261 7264 1
7261 7265 1
7266 7264 1
7266 7265 1
7268 7271 1
7268 7274 1
7269 7272 1
7269 7273 1
7274 7272 1
7274 7273 1
7276 7279 1
7276 7283 1
7277 7280 1
7277 7281 1
7277 7282 1
7283 7280 1
7283 7281 1
7283 7282 1
7285 7288 1
7285 7291 1
7286 7289 1
7286 7290 1
7291 7289 1
7291 7290 1
7293 7296 1
7293 7301 1
7294 7297 1
7294 7299 1
7294 7300 1
7295 7298 1
7299 7298 1
7300 7298 1
7301 7297 1
7301 7299 1
7301 7300 1
7303 7306 1
7303 7310 1
7304 7307 1
7304 7308 1
7304 7309 1
7310 7307 1
7310 7308 1
7310 7309 1
7312 7315 1
7312 7319 1
7313 7316 1
7313 7317 1
7313 7318 1
7319 7316 1
7319 7317 1
7319 7318 1
7321 7324 1
7321 7328 1
7322 7325 1
7322 7326 1
7322 7327 1
7328 7325 1
7328 7326 1
7328 7327 1
7330 7333 1
7330 7338 1
7331 7334 1
7331 7336 1
7331 7337 1
7332 7335 1
7336 7335 1
7337 7335 1
7338 7334 1
7338 7336 1
7338 7337 1
7340 7343 1
7340 7346 1
7341 7344 1
7341 7345 1
7346 7344 1
7346 7345 1
7348 7351 1
7348 7354 1
7349 7352 1
7349 7353 1
7354 7352 1
7354 7353 1
7356 7359 1
7356 7362 1
7357 7360 1
7357 7361 1
7362 7360 1
7362 7361 1
7364 7367 1
7364 7371 1
7365 7368 1
7365 7369 1
7365 7370 1
7371 7368 1
7371 7369 1
7371 7370 1
7373 7376 1
7373 7381 1
7374 7377 1
7374 7379 1
7374 7380 1
7375 7378 1
7379 7378 1
7380 7378 1
7381 7377 1
7381 7379 1
7381 7380 1
7383 7386 1
7383 7390 1
7384 7387 1
7384 7388 1
7384 7389 1
7390 7387 1
7390 7388 1
7390 7389 1
7392 7395 1
7392 7398 1
7393 7396 1
7393 7397 1
7398 7396 1
7398 7397 1
7400 7403 1
7400 7406 1
7401 7404 1
7401 7405 1
7406 7404 1
7406 7405 1
7408 7411 1
7408 7414 1
7409 7412 1
7409 7413 1
7414 7412 1
7414 7413 1
7416 7419 1
7416 7422 1
7417 7420 1
7417 7421 1
7422 7420 1
7422 7421 1
7424 7427 1
7424 7430 1
7425 7428 1
7425 7429 1
7430 7428 1
7430 7429 1
7432 7435 1
7432 7438 1
7433 7436 1
7433 7437 1
7438 7436 1
7438 7437 1
7440 7443 1
7440 7446 1
7441 7444 1
7441 7445 1
7446 7444 1
7446 7445 1
7448 7451 1
7448 7455 1
7449 7452 1
7449 7453 1
7449 7454 1
7455 7452 1
7455 7453 1
7455 7454 1
7457 7460 1
7457 7464 1
7458 7461 1
7458 7462 1
7458 7463 1
7464 7461 1
7464 7462 1
7464 7463 1
7466 7469 1
7466 7472 1
7467 7470 1
7467 7471 1
7472 7470 1
7472 7471 1
7474 7477 1
7474 7480 1
7475 7478 1
7475 7479 1
7480 7478 1
7480 7479 1
7482 7485 1
7482 7490 1
7483 7486 1
7483 7488 1
7483 7489 1
7484 7487 1
7488 7487 1
7489 7487 1
7490 7486 1
7490 7488 1
7490 7489 1
7492 7495 1
7492 7499 1
7493 7496 1
7493 7497 1
7493 7498 1
7499 7496 1
7499 7497 1
7499 7498 1
7501 7504 1
7501 7507 1
7502 7505 1
7502 7506 1
7507 7505 1
7507 7506 1
7509 7512 1
7509 7516 1
7510 7513 1
7510 7514 1
7510 7515 1
7516 7513 1
7516 7514 1
7516 7515 1
7518 7521 1
7518 7525 1
7519 7522 1
7519 7523 1
7519 7524 1
7525 7522 1
7525 7523 1
7525 7524 1
7527 7530 1
7527 7533 1
7528 7531 1
7528 7532 1
7533 7531 1
7533 7532 1
7535 7538 1
7535 7542 1
7536 7539 1
7536 7540 1
7536 7541 1
7542 7539 1
7542 7540 1
7542 7541 1
7544 7547 1
7544 7550 1
7545 7548 1
7545 7549 1
7550 7548 1
7550 7549 1
7552 7555 1
7552 7559 1
7553 7556 1
7553 7557 1
7553 7558 1
7559 7556 1
7559 7557 1
7559 7558 1
7561 7564 1
7561 7568 1
7562 7565 1
7562 7566 1
7562 7567 1
7568 7565 1
7568 7566 1
7568 7567 1
7570 7573 1
7570 7577 1
7571 7574 1
7571 7575 1
7571 7576 1
7577 7574 1
7577 7575 1
7577 7576 1
7579 7582 1
7579 7586 1
7580 7583 1
7580 7584 1
7580 7585 1
7586 7583 1
7586 7584 1
7586 7585 1
7588 7591 1
7588 7596 1
7589 7592 1
7589 7594 1
7589 7595 1
7590 7593 1
7594 7593 1
7595 7593 1
7596 7592 1
7596 7594 1
7596 7595 1
7598 7601 1
7598 7604 1
7599 7602 1
7599 7603 1
7604 7602 1
7604 7603 1
7606 7609 1
7606 7612 1
7607 7610 1
7607 7611 1
7612 7610 1
7612 7611 1
7614 7617 1
7614 7620 1
7615 7618 1
7615 7619 1
7620 7618 1
7620 7619 1
7622 7625 1
7622 7630 1
7623 7626 1
7623 7628 1
7623 7629 1
7624 7627 1
7628 7627 1
7629 7627 1
7630 7626 1
7630 7628 1
7630 7629 1
7632 7635 1
7632 7639 1
7633 7636 1
7633 7637 1
7633 7638 1
7639 7636 1
7639 7637 1
7639 7638 1
7641 7644 1
7641 7648 1
7642 7645 1
7642 7646 1
7642 7647 1
7648 7645 1
7648 7646 1
7648 7647 1
7650 7653 1
7650 7656 1
7651 7654 1
7651 7655 1
7656 7654 1
7656 7655 1
7658 7661 1
7658 7664 1
7659 7662 1
7659 7663 1
7664 7662 1
7664 7663 1
7666 7669 1
7666 7673 1
7667 7670 1
7667 7671 1
7667 7672 1
7673 7670 1
7673 7671 1
7673 7672 1
7675 7678 1
7675 7681 1
7676 7679 1
7676 7680 1
7681 7679 1
7681 7680 1
7683 7686 1
7683 7689 1
7684 7687 1
7684 7688 1
7689 7687 1
7689 7688 1
7691 7694 1
7691 7698 1
7692 7695 1
7692 7696 1
7692 7697 1
7698 7695 1
7698 7696 1
7698 7697 1
7700 7703 1
7700 7707 1
7701 7704 1
7701 7705 1
7701 7706 1
7707 7704 1
7707 7705 1
7707 7706 1
7709 7712 1
7709 7716 1
7710 7713 1
7710 7714 1
7710 7715 1
7716 7713 1
7716 7714 1
7716 7715 1
7718 7721 1
7718 7724 1
7719 7722 1
7719 7723 1
7724 7722 1
7724 7723 1
7726 7729 1
7726 7733 1
7727 7730 1
7727 7731 1
7727 7732 1
7733 7730 1
7733 7731 1
7733 7732 1
7735 7738 1
7735 7742 1
7736 7739 1
7736 7740 1
7736 7741 1
7742 7739 1
7742 7740 1
7742 7741 1
7744 7747 1
7744 7750 1
7745 7748 1
7745 7749 1
7750 7748 1
7750 7749 1
7752 7755 1
7752 7758 1
7753 7756 1
7753 7757 1
7758 7756 1
7758 7757 1
7760 7763 1
7760 7767 1
7761 7764 1
7761 7765 1
7761 7766 1
7767 7764 1
7767 7765 1
7767 7766 1
7769 7772 1
7769 7775 1
7770 7773 1
7770 7774 1
7775 7773 1
7775 7774 1
7777 7780 1
7777 7785 1
7778 7781 1
7778 7783 1
7778 7784 1
7779 7782 1
7783 7782 1
7784 7782 1
7785 7781 1
7785 7783 1
7785 7784 1
7787 7790 1
7787 7794 1
7788 7791 1
7788 7792 1
7788 7793 1
7794 7791 1
7794 7792 1
7794 7793 1
7796 7799 1
7796 7802 1
7797 7800 1
7797 7801 1
7802 7800 1
7802 7801 1
7804 7807 1
7804 7810 1
7805 7808 1
7805 7809 1
7810 7808 1
7810 7809 1
7812 7815 1
7812 7819 1
7813 7816 1
7813 7817 1
7813 7818 1
7819 7816 1
7819 7817 1
7819 7818 1
7821 7824 1
7821 7827 1
7822 7825 1
7822 7826 1
7827 7825 1
7827 7826 1
7829 7832 1
7829 7835 1
7830 7833 1
7830 7834 1
7835 7833 1
7835 7834 1
7837 7840 1
7837 7843 1
7838 7841 1
7838 7842 1
7843 7841 1
7843 7842 1
7845 7848 1
7845 7852 1
7846 7849 1
7846 7850 1
7846 7851 1
7852 7849 1
7852 7850 1
7852 7851 1
7854 7857 1
7854 7861 1
7855 7858 1
7855 7859 1
7855 7860 1
7861 7858 1
7861 7859 1
7861 7860 1
7863 7866 1
7863 7869 1
7864 7867 1
7864 7868 1
7869 7867 1
7869 7868 1
7871 7874 1
7871 7877 1
7872 7875 1
7872 7876 1
7877 7875 1
7877 7876 1
7879 7882 1
7879 7885 1
7880 7883 1
7880 7884 1
7885 7883 1
7885 7884 1
7887 7890 1
7887 7893 1
7888 7891 1
7888 7892 1
7893 7891 1
7893 7892 1
7895 7898 1
7895 7902 1
7896 7899 1
7896 7900 1
7896 7901 1
7902 7899 1
7902 7900 1
7902 7901 1
7904 7907 1
7904 7910 1
7905 7908 1
7905 7909 1
7910 7908 1
7910 7909 1
7912 7915 1
7912 7919 1
7913 7916 1
7913 7917 1
7913 7918 1
7919 7916 1
7919 7917 1
7919 7918 1
7921 7924 1
7921 7928 1
7922 7925 1
7922 7926 1
7922 7927 1
7928 7925 1
7928 7926 1
7928 7927 1
7930 7933 1
7930 7936 1
7931 7934 1
7931 7935 1
7936 7934 1
7936 7935 1
7938 7941 1
7938 7946 1
7939 7942 1
7939 7944 1
7939 7945 1
7940 7943 1
7944 7943 1
7945 7943 1
7946 7942 1
7946 7944 1
7946 7945 1
7948 7951 1
7948 7954 1
7949 7952 1
7949 7953 1
7954 7952 1
7954 7953 1
7956 7959 1
7956 7963 1
7957 7960 1
7957 7961 1
7957 7962 1
7963 7960 1
7963 7961 1
7963 7962 1
7965 7968 1
7965 7973 1
7966 7969 1
7966 7971 1
7966 7972 1
7967 7970 1
7971 7970 1
7972 7970 1
7973 7969 1
7973 7971 1
7973 7972 1
7975 7978 1
7975 7982 1
7976 7979 1
7976 7980 1
7976 7981 1
7982 7979 1
7982 7980 1
7982 7981 1
7984 7987 1
7984 7992 1
7985 7988 1
7985 7990 1
7985 7991 1
7986 7989 1
7990 7989 1
7991 7989 1
7992 7988 1
7992 7990 1
7992 7991 1
7994 7997 1
7994 8001 1
7995 7998 1
7995 7999 1
7995 8000 1
8001 7998 1
8001 7999 1
8001 8000 1
8003 8006 1
8003 8009 1
8004 8007 1
8004 8008 1
8009 8007 1
8009 8008 1
8011 8014 1
8011 8018 1
8012 8015 1
8012 8016 1
8012 8017 1
8018 8015 1
8018 8016 1
8018 8017 1
8020 8023 1
8020 8027 1
8021 8024 1
8021 8025 1
8021 8026 1
8027 8024 1
8027 8025 1
8027 8026 1
8029 8032 1
8029 8036 1
8030 8033 1
8030 8034 1
8030 8035 1
8036 8033 1
8036 8034 1
8036 8035 1
8038 8041 1
8038 8045 1
8039 8042 1
8039 8043 1
8039 8044 1
8045 8042 1
8045 8043 1
8045 8044 1
8047 8050 1
8047 8053 1
8048 8051 1
8048 8052 1
8053 8051 1
8053 8052 1
8055 8058 1
8055 8061 1
8056 8059 1
8056 8060 1
8061 8059 1
8061 8060 1
8063 8066 1
8063 8069 1
8064 8067 1
8064 8068 1
8069 8067 1
8069 8068 1
8071 8074 1
8071 8078 1
8072 8075 1
8072 8076 1
8072 8077 1
8078 8075 1
8078 8076 1
8078 8077 1
8080 8083 1
8080 8086 1
8081 8084 1
8081 8085 1
8086 8084 1
8086 8085 1
8088 8091 1
8088 8094 1
8089 8092 1
8089 8093 1
8094 8092 1
8094 8093 1
8096 8099 1
8096 8103 1
8097 8100 1
8097 8101 1
8097 8102 1
8103 8100 1
8103 8101 1
8103 8102 1
8105 8108 1
8105 8112 1
8106 8109 1
8106 8110 1
8106 8111 1
8112 8109 1
8112 8110 1
8112 8111 1
8114 8117 1
8114 8121 1
8115 8118 1
8115 8119 1
8115 8120 1
8121 8118 1
8121 8119 1
8121 8120 1
8123 8126 1
8123 8131 1
8124 8127 1
8124 8129 1
8124 8130 1
8125 8128 1
8129 8128 1
8130 8128 1
8131 8127 1
8131 8129 1
8131 8130 1
8133 8136 1
8133 8139 1
8134 8137 1
8134 8138 1
8139 8137 1
8139 8138 1
8141 8144 1
8141 8147 1
8142 8145 1
8142 8146 1
8147 8145 1
8147 8146 1
8149 8152 1
8149 8156 1
8150 8153 1
8150 8154 1
8150 8155 1
8156 8153 1
8156 8154 1
8156 8155 1
8158 8161 1
8158 8164 1
8159 8162 1
8159 8163 1
8164 8162 1
8164 8163 1
8166 8169 1
8166 8172 1
8167 8170 1
8167 8171 1
8172 8170 1
8172 8171 1
8174 8177 1
8174 8180 1
8175 8178 1
8175 8179 1
8180 8178 1
8180 8179 1
8182 8185 1
8182 8188 1
8183 8186 1
8183 8187 1
8188 8186 1
8188 8187 1
8190 8193 1
8190 8196 1
8191 8194 1
8191 8195 1
8196 8194 1
8196 8195 1
8198 8201 1
8198 8205 1
8199 8202 1
8199 8203 1
8199 8204 1
8205 8202 1
8205 8203 1
8205 8204 1
8207 8210 1
8207 8213 1
8208 8211 1
8208 8212 1
8213 8211 1
8213 8212 1
8215 8218 1
8215 8222 1
8216 8219 1
8216 8220 1
8216 8221 1
8222 8219 1
8222 8220 1
8222 8221 1
8224 8227 1
8224 8231 1
8225 8228 1
8225 8229 1
8225 8230 1
8231 8228 1
8231 8229 1
8231 8230 1
8233 8236 1
8233 8240 1
8234 8237 1
8234 8238 1
8234 8239 1
8240 8237 1
8240 8238 1
8240 8239 1
8242 8245 1
8242 8249 1
8243 8246 1
8243 8247 1
8243 8248 1
8249 8246 1
8249 8247 1
8249 8248 1
8251 8254 1
8251 8257 1
8252 8255 1
8252 8256 1
8257 8255 1
8257 8256 1
8259 8262 1
8259 8265 1
8260 8263 1
8260 8264 1
8265 8263 1
8265 8264 1
8267 8270 1
8267 8274 1
8268 8271 1
8268 8272 1
8268 8273 1
8274 8271 1
8274 8272 1
8274 8273 1
8276 8279 1
8276 8283 1
8277 8280 1
8277 8281 1
8277 8282 1
8283 8280 1
8283 8281 1
8283 8282 1
8285 8288 1
8285 8291 1
8286 8289 1
8286 8290 1
8291 8289 1
8291 8290 1
8293 8296 1
8293 8299 1
8294 8297 1
8294 8298 1
8299 8297 1
8299 8298 1
8301 8304 1
8301 8309 1
8302 8305 1
8302 8307 1
8302 8308 1
8303 8306 1
8307 8306 1
8308 8306 1
8309 8305 1
8309 8307 1
8309 8308 1
8311 8314 1
8311 8317 1
8312 8315 1
8312 8316 1
8317 8315 1
8317 8316 1
8319 8322 1
8319 8325 1
8320 8323 1
8320 8324 1
8325 8323 1
8325 8324 1
8327 8330 1
8327 8333 1
8328 8331 1
8328 8332 1
8333 8331 1
8333 8332 1
8335 8338 1
8335 8341 1
8336 8339 1
8336 8340 1
8341 8339 1
8341 8340 1
8343 8346 1
8343 8349 1
8344 8347 1
8344 8348 1
8349 8347 1
8349 8348 1
8351 8354 1
8351 8357 1
8352 8355 1
8352 8356 1
8357 8355 1
8357 8356 1
8359 8362 1
8359 8365 1
8360 8363 1
8360 8364 1
8365 8363 1
8365 8364 1
8367 8370 1
8367 8374 1
8368 8371 1
8368 8372 1
8368 8373 1
8374 8371 1
8374 8372 1
8374 8373 1
8376 8379 1
8376 8383 1
8377 8380 1
8377 8381 1
8377 8382 1
8383 8380 1
8383 8381 1
8383 8382 1
8385 8388 1
8385 8391 1
8386 8389 1
8386 8390 1
8391 8389 1
8391 8390 1
8393 8396 1
8393 8399 1
8394 8397 1
8394 8398 1
8399 8397 1
8399 8398 1
8401 8404 1
8401 8408 1
8402 8405 1
8402 8406 1
8402 8407 1
8408 8405 1
8408 8406 1
8408 8407 1
8410 8413 1
8410 8417 1
8411 8414 1
8411 8415 1
8411 8416 1
8417 8414 1
8417 8415 1
8417 8416 1
8419 8422 1
8419 8426 1
8420 8423 1
8420 8424 1
8420 8425 1
8426 8423 1
8426 8424 1
8426 8425 1
8428 8431 1
8428 8434 1
8429 8432 1
8429 8433 1
8434 8432 1
8434 8433 1
8436 8439 1
8436 8442 1
8437 8440 1
8437 8441 1
8442 8440 1
8442 8441 1
8444 8447 1
8444 8452 1
8445 8448 1
8445 8450 1
8445 8451 1
8446 8449 1
8450 8449 1
8451 8449 1
8452 8448 1
8452 8450 1
8452 8451 1
8454 8457 1
8454 8460 1
8455 8458 1
8455 8459 1
8460 8458 1
8460 8459 1
8462 8465 1
8462 8468 1
8463 8466 1
8463 8467 1
8468 8466 1
8468 8467 1
8470 8473 1
8470 8476 1
8471 8474 1
8471 8475 1
8476 8474 1
8476 8475 1
8478 8481 1
8478 8485 1
8479 8482 1
8479 8483 1
8479 8484 1
8485 8482 1
8485 8483 1
8485 8484 1
8487 8490 1
8487 8494 1
8488 8491 1
8488 8492 1
8488 8493 1
8494 8491 1
8494 8492 1
8494 8493 1
8496 8499 1
8496 8502 1
8497 8500 1
8497 8501 1
8502 8500 1
8502 8501 1
8504 8507 1
8504 8510 1
8505 8508 1
8505 8509 1
8510 8508 1
8510 8509 1
8512 8515 1
8512 8518 1
8513 8516 1
8513 8517 1
8518 8516 1
8518 8517 1
8520 8523 1
8520 8526 1
8521 8524 1
8521 8525 1
8526 8524 1
8526 8525 1
8528 8531 1
8528 8535 1
8529 8532 1
8529 8533 1
8529 8534 1
8535 8532 1
8535 8533 1
8535 8534 1
8537 8540 1
8537 8544 1
8538 8541 1
8538 8542 1
8538 8543 1
8544 8541 1
8544 8542 1
8544 8543 1
8546 8549 1
8546 8552 1
8547 8550 1
8547 8551 1
8552 8550 1
8552 8551 1
8554 8557 1
8554 8561 1
8555 8558 1
8555 8559 1
8555 8560 1
8561 8558 1
8561 8559 1
8561 8560 1
8563 8566 1
8563 8569 1
8564 8567 1
8564 8568 1
8569 8567 1
8569 8568 1
8571 8574 1
8571 8578 1
8572 8575 1
8572 8576 1
8572 8577 1
8578 8575 1
8578 8576 1
8578 8577 1
8580 8583 1
8580 8586 1
8581 8584 1
8581 8585 1
8586 8584 1
8586 8585 1
8588 8591 1
8588 8594 1
8589 8592 1
8589 8593 1
8594 8592 1
8594 8593 1
8596 8599 1
8596 8602 1
8597 8600 1
8597 8601 1
8602 8600 1
8602 8601 1
8604 8607 1
8604 8611 1
8605 8608 1
8605 8609 1
8605 8610 1
8611 8608 1
8611 8609 1
8611 8610 1
8613 8616 1
8613 8620 1
8614 8617 1
8614 8618 1
8614 8619 1
8620 8617 1
8620 8618 1
8620 8619 1
8622 8625 1
8622 8629 1
8623 8626 1
8623 8627 1
8623 8628 1
8629 8626 1
8629 8627 1
8629 8628 1
8631 8634 1
8631 8637 1
8632 8635 1
8632 8636 1
8637 8635 1
8637 8636 1
8639 8642 1
8639 8645 1
8640 8643 1
8640 8644 1
8645 8643 1
8645 8644 1
8647 8650 1
8647 8653 1
8648 8651 1
8648 8652 1
8653 8651 1
8653 8652 1
8655 8658 1
8655 8661 1
8656 8659 1
8656 8660 1
8661 8659 1
8661 8660 1
8663 8666 1
8663 8669 1
8664 8667 1
8664 8668 1
8669 8667 1
8669 8668 1
8671 8674 1
8671 8677 1
8672 8675 1
8672 8676 1
8677 8675 1
8677 8676 1
8679 8682 1
8679 8686 1
8680 8683 1
8680 8684 1
8680 8685 1
8686 8683 1
8686 8684 1
8686 8685 1
8688 8691 1
8688 8694 1
8689 8692 1
8689 8693 1
8694 8692 1
8694 8693 1
8696 8699 1
8696 8702 1
8697 8700 1
8697 8701 1
8702 8700 1
8702 8701 1
8704 8707 1
8704 8712 1
8705 8708 1
8705 8710 1
8705 8711 1
8706 8709 1
8710 8709 1
8711 8709 1
8712 8708 1
8712 8710 1
8712 8711 1
8714 8717 1
8714 8720 1
8715 8718 1
8715 8719 1
8720 8718 1
8720 8719 1
8722 8725 1
8722 8728 1
8723 8726 1
8723 8727 1
8728 8726 1
8728 8727 1
8730 8733 1
8730 8736 1
8731 8734 1
8731 8735 1
8736 8734 1
8736 8735 1
8738 8741 1
8738 8745 1
8739 8742 1
8739 8743 1
8739 8744 1
8745 8742 1
8745 8743 1
8745 8744 1
8747 8750 1
8747 8754 1
8748 8751 1
8748 8752 1
8748 8753 1
8754 8751 1
8754 8752 1
8754 8753 1
8756 8759 1
8756 8763 1
8757 8760 1
8757 8761 1
8757 8762 1
8763 8760 1
8763 8761 1
8763 8762 1
8765 8768 1
8765 8772 1
8766 8769 1
8766 8770 1
8766 8771 1
8772 8769 1
8772 8770 1
8772 8771 1
8774 8777 1
8774 8780 1
8775 8778 1
8775 8779 1
8780 8778 1
8780 8779 1
8782 8785 1
8782 8789 1
8783 8786 1
8783 8787 1
8783 8788 1
8789 8786 1
8789 8787 1
8789 8788 1
8791 8794 1
8791 8797 1
8792 8795 1
8792 8796 1
8797 8795 1
8797 8796 1
8799 8802 1
8799 8806 1
8800 8803 1
8800 8804 1
8800 8805 1
8806 8803 1
8806 8804 1
8806 8805 1
8808 8811 1
8808 8814 1
8809 8812 1
8809 8813 1
8814 8812 1
8814 8813 1
8816 8819 1
8816 8823 1
8817 8820 1
8817 8821 1
8817 8822 1
8823 8820 1
8823 8821 1
8823 8822 1
8825 8828 1
8825 8831 1
8826 8829 1
8826 8830 1
8831 8829 1
8831 8830 1
8833 8836 1
8833 8839 1
8834 8837 1
8834 8838 1
8839 8837 1
8839 8838 1
8841 8844 1
8841 8848 1
8842 8845 1
8842 8846 1
8842 8847 1
8848 8845 1
8848 8846 1
8848 8847 1
8850 8853 1
8850 8856 1
8851 8854 1
8851 8855 1
8856 8854 1
8856 8855 1
8858 8861 1
8858 8865 1
8859 8862 1
8859 8863 1
8859 8864 1
8865 8862 1
8865 8863 1
8865 8864 1
8867 8870 1
8867 8873 1
8868 8871 1
8868 8872 1
8873 8871 1
8873 8872 1
8875 8878 1
8875 8883 1
8876 8879 1
8876 8881 1
8876 8882 1
8877 8880 1
8881 8880 1
8882 8880 1
8883 8879 1
8883 8881 1
8883 8882 1
8885 8888 1
8885 8891 1
8886 8889 1
8886 8890 1
8891 8889 1
8891 8890 1
8893 8896 1
8893 8899 1
8894 8897 1
8894 8898 1
8899 8897 1
8899 8898 1
8901 8904 1
8901 8907 1
8902 8905 1
8902 8906 1
8907 8905 1
8907 8906 1
8909 8912 1
8909 8916 1
8910 8913 1
8910 8914 1
8910 8915 1
8916 8913 1
8916 8914 1
8916 8915 1
8918 8921 1
8918 8924 1
8919 8922 1
8919 8923 1
8924 8922 1
8924 8923 1
8926 8929 1
8926 8934 1
8927 8930 1
8927 8932 1
8927 8933 1
8928 8931 1
8932 8931 1
8933 8931 1
8934 8930 1
8934 8932 1
8934 8933 1
8936 8939 1
8936 8943 1
8937 8940 1
8937 8941 1
8937 8942 1
8943 8940 1
8943 8941 1
8943 8942 1
8945 8948 1
8945 8951 1
8946 8949 1
8946 8950 1
8951 8949 1
8951 8950 1
8953 8956 1
8953 8960 1
8954 8957 1
8954 8958 1
8954 8959 1
8960 8957 1
8960 8958 1
8960 8959 1
8962 8965 1
8962 8969 1
8963 8966 1
8963 8967 1
8963 8968 1
8969 8966 1
8969 8967 1
8969 8968 1
8971 8974 1
8971 8977 1
8972 8975 1
8972 8976 1
8977 8975 1
8977 8976 1
8979 8982 1
8979 8985 1
8980 8983 1
8980 8984 1
8985 8983 1
8985 8984 1
8987 8990 1
8987 8993 1
8988 8991 1
8988 8992 1
8993 8991 1
8993 8992 1
8995 8998 1
8995 9001 1
8996 8999 1
8996 9000 1
9001 8999 1
9001 9000 1
9003 9006 1
9003 9011 1
9004 9007 1
9004 9009 1
9004 9010 1
9005 9008 1
9009 9008 1
9010 9008 1
9011 9007 1
9011 9009 1
9011 9010 1
9013 9016 1
9013 9019 1
9014 9017 1
9014 9018 1
9019 9017 1
9019 9018 1
9021 9024 1
9021 9027 1
9022 9025 1
9022 9026 1
9027 9025 1
9027 9026 1
9029 9032 1
9029 9035 1
9030 9033 1
9030 9034 1
9035 9033 1
9035 9034 1
9037 9040 1
9037 9044 1
9038 9041 1
9038 9042 1
9038 9043 1
9044 9041 1
9044 9042 1
9044 9043 1
9046 9049 1
9046 9052 1
9047 9050 1
9047 9051 1
9052 9050 1
9052 9051 1
9054 9057 1
9054 9060 1
9055 9058 1
9055 9059 1
9060 9058 1
9060 9059 1
9062 9065 1
9062 9068 1
9063 9066 1
9063 9067 1
9068 9066 1
9068 9067 1
9070 9073 1
9070 9076 1
9071 9074 1
9071 9075 1
9076 9074 1
9076 9075 1
9078 9081 1
9078 9084 1
9079 9082 1
9079 9083 1
9084 9082 1
9084 9083 1
9086 9089 1
9086 9092 1
9087 9090 1
9087 9091 1
9092 9090 1
9092 9091 1
9094 9097 1
9094 9101 1
9095 9098 1
9095 9099 1
9095 9100 1
9101 9098 1
9101 9099 1
9101 9100 1
9103 9106 1
9103 9109 1
9104 9107 1
9104 9108 1
9109 9107 1
9109 9108 1
9111 9114 1
9111 9117 1
9112 9115 1
9112 9116 1
9117 9115 1
9117 9116 1
9119 9122 1
9119 9126 1
9120 9123 1
9120 9124 1
9120 9125 1
9126 9123 1
9126 9124 1
9126 9125 1
9128 9131 1
9128 9134 1
9129 9132 1
9129 9133 1
9134 9132 1
9134 9133 1
9136 9139 1
9136 9144 1
9137 9140 1
9137 9142 1
9137 9143 1
9138 9141 1
9142 9141 1
9143 9141 1
9144 9140 1
9144 9142 1
9144 9143 1
9146 9149 1
9146 9154 1
9147 9150 1
9147 9152 1
9147 9153 1
9148 9151 1
9152 9151 1
9153 9151 1
9154 9150 1
9154 9152 1
9154 9153 1
9156 9159 1
9156 9163 1
9157 9160 1
9157 9161 1
9157 9162 1
9163 9160 1
9163 9161 1
9163 9162 1
9165 9168 1
9165 9171 1
9166 9169 1
9166 9170 1
9171 9169 1
9171 9170 1
9173 9176 1
9173 9179 1
9174 9177 1
9174 9178 1
9179 9177 1
9179 9178 1
9181 9184 1
9181 9187 1
9182 9185 1
9182 9186 1
9187 9185 1
9187 9186 1
9189 9192 1
9189 9195 1
9190 9193 1
9190 9194 1
9195 9193 1
9195 9194 1
9197 9200 1
9197 9203 1
9198 9201 1
9198 9202 1
9203 9201 1
9203 9202 1
9205 9208 1
9205 9212 1
9206 9209 1
9206 9210 1
9206 9211 1
9212 9209 1
9212 9210 1
9212 9211 1
9214 9217 1
9214 9220 1
9215 9218 1
9215 9219 1
9220 9218 1
9220 9219 1
9222 9225 1
9222 9228 1
9223 9226 1
9223 9227 1
9228 9226 1
9228 9227 1
9230 9233 1
9230 9236 1
9231 9234 1
9231 9235 1
9236 9234 1
9236 9235 1
9238 9241 1
9238 9245 1
9239 9242 1
9239 9243 1
9239 9244 1
9245 9242 1
9245 9243 1
9245 9244 1
9247 9250 1
9247 9253 1
9248 9251 1
9248 9252 1
9253 9251 1
9253 9252 1
9255 9258 1
9255 9261 1
9256 9259 1
9256 9260 1
9261 9259 1
9261 9260 1
9263 9266 1
9263 9269 1
9264 9267 1
9264 9268 1
9269 9267 1
9269 9268 1
9271 9274 1
9271 9277 1
9272 9275 1
9272 9276 1
9277 9275 1
9277 9276 1
9279 9282 1
9279 9285 1
9280 9283 1
9280 9284 1
9285 9283 1
9285 9284 1
9287 9290 1
9287 9293 1
9288 9291 1
9288 9292 1
9293 9291 1
9293 9292 1
9295 9298 1
9295 9303 1
9296 9299 1
9296 9301 1
9296 9302 1
9297 9300 1
9301 9300 1
9302 9300 1
9303 9299 1
9303 9301 1
9303 9302 1
9305 9308 1
9305 9311 1
9306 9309 1
9306 9310 1
9311 9309 1
9311 9310 1
9313 9316 1
9313 9320 1
9314 9317 1
9314 9318 1
9314 9319 1
9320 9317 1
9320 9318 1
9320 9319 1
9322 9325 1
9322 9329 1
9323 9326 1
9323 9327 1
9323 9328 1
9329 9326 1
9329 9327 1
9329 9328 1
9331 9334 1
9331 9337 1
9332 9335 1
9332 9336 1
9337 9335 1
9337 9336 1
9339 9342 1
9339 9345 1
9340 9343 1
9340 9344 1
9345 9343 1
9345 9344 1
9347 9350 1
9347 9354 1
9348 9351 1
9348 9352 1
9348 9353 1
9354 9351 1
9354 9352 1
9354 9353 1
9356 9359 1
9356 9362 1
9357 9360 1
9357 9361 1
9362 9360 1
9362 9361 1
9364 9367 1
9364 9370 1
9365 9368 1
9365 9369 1
9370 9368 1
9370 9369 1
9372 9375 1
9372 9380 1
9373 9376 1
9373 9378 1
9373 9379 1
9374 9377 1
9378 9377 1
9379 9377 1
9380 9376 1
9380 9378 1
9380 9379 1
9382 9385 1
9382 9389 1
9383 9386 1
9383 9387 1
9383 9388 1
9389 9386 1
9389 9387 1
9389 9388 1
9391 9394 1
9391 9397 1
9392 9395 1
9392 9396 1
9397 9395 1
9397 9396 1
9399 9402 1
9399 9405 1
9400 9403 1
9400 9404 1
9405 9403 1
9405 9404 1
9407 9410 1
9407 9413 1
9408 9411 1
9408 9412 1
9413 9411 1
9413 9412 1
9415 9418 1
9415 9421 1
9416 9419 1
9416 9420 1
9421 9419 1
9421 9420 1
9423 9426 1
9423 9429 1
9424 9427 1
9424 9428 1
9429 9427 1
9429 9428 1
9431 9434 1
9431 9437 1
9432 9435 1
9432 9436 1
9437 9435 1
9437 9436 1
9439 9442 1
9439 9446 1
9440 9443 1
9440 9444 1
9440 9445 1
9446 9443 1
9446 9444 1
9446 9445 1
9448 9451 1
9448 9454 1
9449 9452 1
9449 9453 1
9454 9452 1
9454 9453 1
9456 9459 1
9456 9462 1
9457 9460 1
9457 9461 1
9462 9460 1
9462 9461 1
9464 9467 1
9464 9470 1
9465 9468 1
9465 9469 1
9470 9468 1
9470 9469 1
9472 9475 1
9472 9478 1
9473 9476 1
9473 9477 1
9478 9476 1
9478 9477 1
9480 9483 1
9480 9487 1
9481 9484 1
9481 9485 1
9481 9486 1
9487 9484 1
9487 9485 1
9487 9486 1
9489 9492 1
9489 9496 1
9490 9493 1
9490 9494 1
9490 9495 1
9496 9493 1
9496 9494 1
9496 9495 1
9498 9501 1
9498 9504 1
9499 9502 1
9499 9503 1
9504 9502 1
9504 9503 1
9506 9509 1
9506 9513 1
9507 9510 1
9507 9511 1
9507 9512 1
9513 9510 1
9513 9511 1
9513 9512 1
9515 9518 1
9515 9522 1
9516 9519 1
9516 9520 1
9516 9521 1
9522 9519 1
9522 9520 1
9522 9521 1
9524 9527 1
9524 9530 1
9525 9528 1
9525 9529 1
9530 9528 1
9530 9529 1
9532 9535 1
9532 9539 1
9533 9536 1
9533 9537 1
9533 9538 1
9539 9536 1
9539 9537 1
9539 9538 1
9541 9544 1
9541 9547 1
9542 9545 1
9542 9546 1
9547 9545 1
9547 9546 1
9549 9552 1
9549 9556 1
9550 9553 1
9550 9554 1
9550 9555 1
9556 9553 1
9556 9554 1
9556 9555 1
9558 9561 1
9558 9564 1
9559 9562 1
9559 9563 1
9564 9562 1
9564 9563 1
9566 9569 1
9566 9573 1
9567 9570 1
9567 9571 1
9567 9572 1
9573 9570 1
9573 9571 1
9573 9572 1
9575 9578 1
9575 9583 1
9576 9579 1
9576 9581 1
9576 9582 1
9577 9580 1
9581 9580 1
9582 9580 1
9583 9579 1
9583 9581 1
9583 9582 1
9585 9588 1
9585 9592 1
9586 9589 1
9586 9590 1
9586 9591 1
9592 9589 1
9592 9590 1
9592 9591 1
9594 9597 1
9594 9601 1
9595 9598 1
9595 9599 1
9595 9600 1
9601 9598 1
9601 9599 1
9601 9600 1
9603 9606 1
9603 9609 1
9604 9607 1
9604 9608 1
9609 9607 1
9609 9608 1
9611 9614 1
9611 9617 1
9612 9615 1
9612 9616 1
9617 9615 1
9617 9616 1
9619 9622 1
9619 9625 1
9620 9623 1
9620 9624 1
9625 9623 1
9625 9624 1
9627 9630 1
9627 9633 1
9628 9631 1
9628 9632 1
9633 9631 1
9633 9632 1
9635 9638 1
9635 9641 1
9636 9639 1
9636 9640 1
9641 9639 1
9641 9640 1
9643 9646 1
9643 9651 1
9644 9647 1
9644 9649 1
9644 9650 1
9645 9648 1
9649 9648 1
9650 9648 1
9651 9647 1
9651 9649 1
9651 9650 1
9653 9656 1
9653 9659 1
9654 9657 1
9654 9658 1
9659 9657 1
9659 9658 1
9661 9664 1
9661 9667 1
9662 9665 1
9662 9666 1
9667 9665 1
9667 9666 1
9669 9672 1
9669 9675 1
9670 9673 1
9670 9674 1
9675 9673 1
9675 9674 1
9677 9680 1
9677 9683 1
9678 9681 1
9678 9682 1
9683 9681 1
9683 9682 1
9685 9688 1
9685 9691 1
9686 9689 1
9686 9690 1
9691 9689 1
9691 9690 1
9693 9696 1
9693 9699 1
9694 9697 1
9694 9698 1
9699 9697 1
9699 9698 1
9701 9704 1
9701 9707 1
9702 9705 1
9702 9706 1
9707 9705 1
9707 9706 1
9709 9712 1
9709 9716 1
9710 9713 1
9710 9714 1
9710 9715 1
9716 9713 1
9716 9714 1
9716 9715 1
9718 9721 1
9718 9724 1
9719 9722 1
9719 9723 1
9724 9722 1
9724 9723 1
9726 9729 1
9726 9732 1
9727 9730 1
9727 9731 1
9732 9730 1
9732 9731 1
9734 9737 1
9734 9740 1
9735 9738 1
9735 9739 1
9740 9738 1
9740 9739 1
9742 9745 1
9742 9749 1
9743 9746 1
9743 9747 1
9743 9748 1
9749 9746 1
9749 9747 1
9749 9748 1
9751 9754 1
9751 9757 1
9752 9755 1
9752 9756 1
9757 9755 1
9757 9756 1
9759 9762 1
9759 9767 1
9760 9763 1
9760 9765 1
9760 9766 1
9761 9764 1
9765 9764 1
9766 9764 1
9767 9763 1
9767 9765 1
9767 9766 1
9769 9772 1
9769 9776 1
9770 9773 1
9770 9774 1
9770 9775 1
9776 9773 1
9776 9774 1
9776 9775 1
9778 9781 1
9778 9784 1
9779 9782 1
9779 9783 1
9784 9782 1
9784 9783 1
9786 9789 1
9786 9793 1
9787 9790 1
9787 9791 1
9787 9792 1
9793 9790 1
9793 9791 1
9793 9792 1
9795 9798 1
9795 9803 1
9796 9799 1
9796 9801 1
9796 9802 1
9797 9800 1
9801 9800 1
9802 9800 1
9803 9799 1
9803 9801 1
9803 9802 1
9805 9808 1
9805 9813 1
9806 9809 1
9806 9811 1
9806 9812 1
9807 9810 1
9811 9810 1
9812 9810 1
9813 9809 1
9813 9811 1
9813 9812 1
9815 9818 1
9815 9822 1
9816 9819 1
9816 9820 1
9816 9821 1
9822 9819 1
9822 9820 1
9822 9821 1
9824 9827 1
9824 9831 1
9825 9828 1
9825 9829 1
9825 9830 1
9831 9828 1
9831 9829 1
9831 9830 1
9833 9836 1
9833 9839 1
9834 9837 1
9834 9838 1
9839 9837 1
9839 9838 1
9841 9844 1
9841 9848 1
9842 9845 1
9842 9846 1
9842 9847 1
9848 9845 1
9848 9846 1
9848 9847 1
9850 9853 1
9850 9856 1
9851 9854 1
9851 9855 1
9856 9854 1
9856 9855 1
9858 9861 1
9858 9865 1
9859 9862 1
9859 9863 1
9859 9864 1
9865 9862 1
9865 9863 1
9865 9864 1
9867 9870 1
9867 9873 1
9868 9871 1
9868 9872 1
9873 9871 1
9873 9872 1
9875 9878 1
9875 9883 1
9876 9879 1
9876 9881 1
9876 9882 1
9877 9880 1
9881 9880 1
9882 9880 1
9883 9879 1
9883 9881 1
9883 9882 1
9885 9888 1
9885 9891 1
9886 9889 1
9886 9890 1
9891 9889 1
9891 9890 1
9893 9896 1
9893 9899 1
9894 9897 1
9894 9898 1
9899 9897 1
9899 9898 1
9901 9904 1
9901 9907 1
9902 9905 1
9902 9906 1
9907 9905 1
9907 9906 1
9909 9912 1
9909 9916 1
9910 9913 1
9910 9914 1
9910 9915 1
9916 9913 1
9916 9914 1
9916 9915 1
9918 9921 1
9918 9924 1
9919 9922 1
9919 9923 1
9924 9922 1
9924 9923 1
9926 9929 1
9926 9932 1
9927 9930 1
9927 9931 1
9932 9930 1
9932 9931 1
9934 9937 1
9934 9941 1
9935 9938 1
9935 9939 1
9935 9940 1
9941 9938 1
9941 9939 1
9941 9940 1
9943 9946 1
9943 9949 1
9944 9947 1
9944 9948 1
9949 9947 1
9949 9948 1
9951 9954 1
9951 9957 1
9952 9955 1
9952 9956 1
9957 9955 1
9957 9956 1
9959 9962 1
9959 9965 1
9960 9963 1
9960 9964 1
9965 9963 1
9965 9964 1
9967 9970 1
9967 9973 1
9968 9971 1
9968 9972 1
9973 9971 1
9973 9972 1
9975 9978 1
9975 9981 1
9976 9979 1
9976 9980 1
9981 9979 1
9981 9980 1
9983 9986 1
9983 9990 1
9984 9987 1
9984 9988 1
9984 9989 1
9990 9987 1
9990 9988 1
9990 9989 1
9992 9995 1
9992 9998 1
9993 9996 1
9993 9997 1
9998 9996 1
9998 9997 1
10000 10003 1
10000 10007 1
10001 10004 1
10001 10005 1
10001 10006 1
10007 10004 1
10007 10005 1
10007 10006 1
10009 10012 1
10009 10015 1
10010 10013 1
10010 10014 1
10015 10013 1
10015 10014 1
10017 10020 1
10017 10023 1
10018 10021 1
10018 10022 1
10023 10021 1
10023 10022 1
10025 10028 1
10025 10031 1
10026 10029 1
10026 10030 1
10031 10029 1
10031 10030 1
10033 10036 1
10033 10040 1
10034 10037 1
10034 10038 1
10034 10039 1
10040 10037 1
10040 10038 1
10040 10039 1
10042 10045 1
10042 10048 1
10043 10046 1
10043 10047 1
10048 10046 1
10048 10047 1
10050 10053 1
10050 10056 1
10051 10054 1
10051 10055 1
10056 10054 1
10056 10055 1
10058 10061 1
10058 10064 1
10059 10062 1
10059 10063 1
10064 10062 1
10064 10063 1
10066 10069 1
10066 10073 1
10067 10070 1
10067 10071 1
10067 10072 1
10073 10070 1
10073 10071 1
10073 10072 1
10075 10078 1
10075 10081 1
10076 10079 1
10076 10080 1
10081 10079 1
10081 10080 1
10083 10086 1
10083 10089 1
10084 10087 1
10084 10088 1
10089 10087 1
10089 10088 1
10091 10094 1
10091 10097 1
10092 10095 1
10092 10096 1
10097 10095 1
10097 10096 1
10099 10102 1
10099 10105 1
10100 10103 1
10100 10104 1
10105 10103 1
10105 10104 1
10107 10110 1
10107 10113 1
10108 10111 1
10108 10112 1
10113 10111 1
10113 10112 1
10115 10118 1
10115 10122 1
10116 10119 1
10116 10120 1
10116 10121 1
10122 10119 1
10122 10120 1
10122 10121 1
10124 10127 1
10124 10130 1
10125 10128 1
10125 10129 1
10130 10128 1
10130 10129 1
10132 10135 1
10132 10138 1
10133 10136 1
10133 10137 1
10138 10136 1
10138 10137 1
10140 10143 1
10140 10146 1
10141 10144 1
10141 10145 1
10146 10144 1
10146 10145 1
10148 10151 1
10148 10154 1
10149 10152 1
10149 10153 1
10154 10152 1
10154 10153 1
10156 10159 1
10156 10162 1
10157 10160 1
10157 10161 1
10162 10160 1
10162 10161 1
10164 10167 1
10164 10170 1
10165 10168 1
10165 10169 1
10170 10168 1
10170 10169 1
10172 10175 1
10172 10178 1
10173 10176 1
10173 10177 1
10178 10176 1
10178 10177 1
10180 10183 1
10180 10186 1
10181 10184 1
10181 10185 1
10186 10184 1
10186 10185 1
10188 10191 1
10188 10194 1
10189 10192 1
10189 10193 1
10194 10192 1
10194 10193 1
10196 10199 1
10196 10204 1
10197 10200 1
10197 10202 1
10197 10203 1
10198 10201 1
10202 10201 1
10203 10201 1
10204 10200 1
10204 10202 1
10204 10203 1
10206 10209 1
10206 10212 1
10207 10210 1
10207 10211 1
10212 10210 1
10212 10211 1
10214 10217 1
10214 10220 1
10215 10218 1
10215 10219 1
10220 10218 1
10220 10219 1
10222 10225 1
10222 10230 1
10223 10226 1
10223 10228 1
10223 10229 1
10224 10227 1
10228 10227 1
10229 10227 1
10230 10226 1
10230 10228 1
10230 10229 1
10232 10235 1
10232 10238 1
10233 10236 1
10233 10237 1
10238 10236 1
10238 10237 1
10240 10243 1
10240 10246 1
10241 10244 1
10241 10245 1
10246 10244 1
10246 10245 1
10248 10251 1
10248 10255 1
10249 10252 1
10249 10253 1
10249 10254 1
10255 10252 1
10255 10253 1
10255 10254 1
10257 10260 1
10257 10263 1
10258 10261 1
10258 10262 1
10263 10261 1
10263 10262 1
10265 10268 1
10265 10271 1
10266 10269 1
10266 10270 1
10271 10269 1
10271 10270 1
10273 10276 1
10273 10279 1
10274 10277 1
10274 10278 1
10279 10277 1
10279 10278 1
10281 10284 1
10281 10287 1
10282 10285 1
10282 10286 1
10287 10285 1
10287 10286 1
10289 10292 1
10289 10295 1
10290 10293 1
10290 10294 1
10295 10293 1
10295 10294 1
10297 10300 1
10297 10303 1
10298 10301 1
10298 10302 1
10303 10301 1
10303 10302 1
10305 10308 1
10305 10312 1
10306 10309 1
10306 10310 1
10306 10311 1
10312 10309 1
10312 10310 1
10312 10311 1
10314 10317 1
10314 10320 1
10315 10318 1
10315 10319 1
10320 10318 1
10320 10319 1
10322 10325 1
10322 10328 1
10323 10326 1
10323 10327 1
10328 10326 1
10328 10327 1
10330 10333 1
10330 10336 1
10331 10334 1
10331 10335 1
10336 10334 1
10336 10335 1
10338 10341 1
10338 10344 1
10339 10342 1
10339 10343 1
10344 10342 1
10344 10343 1
10346 10349 1
10346 10352 1
10347 10350 1
10347 10351 1
10352 10350 1
10352 10351 1
10354 10357 1
10354 10361 1
10355 10358 1
10355 10359 1
10355 10360 1
10361 10358 1
10361 10359 1
10361 10360 1
10363 10366 1
10363 10369 1
10364 10367 1
10364 10368 1
10369 10367 1
10369 10368 1
10371 10374 1
10371 10377 1
10372 10375 1
10372 10376 1
10377 10375 1
10377 10376 1
10379 10382 1
10379 10386 1
10380 10383 1
10380 10384 1
10380 10385 1
10386 10383 1
10386 10384 1
10386 10385 1
10388 10391 1
10388 10394 1
10389 10392 1
10389 10393 1
10394 10392 1
10394 10393 1
10396 10399 1
10396 10404 1
10397 10400 1
10397 10402 1
10397 10403 1
10398 10401 1
10402 10401 1
10403 10401 1
10404 10400 1
10404 10402 1
10404 10403 1
10406 10409 1
10406 10412 1
10407 10410 1
10407 10411 1
10412 10410 1
10412 10411 1
10414 10417 1
10414 10420 1
10415 10418 1
10415 10419 1
10420 10418 1
10420 10419 1
10422 10425 1
10422 10428 1
10423 10426 1
10423 10427 1
10428 10426 1
10428 10427 1
10430 10433 1
10430 10437 1
10431 10434 1
10431 10435 1
10431 10436 1
10437 10434 1
10437 10435 1
10437 10436 1
10439 10442 1
10439 10447 1
10440 10443 1
10440 10445 1
10440 10446 1
10441 10444 1
10445 10444 1
10446 10444 1
10447 10443 1
10447 10445 1
10447 10446 1
10449 10452 1
10449 10455 1
10450 10453 1
10450 10454 1
10455 10453 1
10455 10454 1
10457 10460 1
10457 10463 1
10458 10461 1
10458 10462 1
10463 10461 1
10463 10462 1
10465 10468 1
10465 10471 1
10466 10469 1
10466 10470 1
10471 10469 1
10471 10470 1
10473 10476 1
10473 10479 1
10474 10477 1
10474 10478 1
10479 10477 1
10479 10478 1
10481 10484 1
10481 10487 1
10482 10485 1
10482 10486 1
10487 10485 1
10487 10486 1
10489 10492 1
10489 10495 1
10490 10493 1
10490 10494 1
10495 10493 1
10495 10494 1
10497 10500 1
10497 10503 1
10498 10501 1
10498 10502 1
10503 10501 1
10503 10502 1
10505 10508 1
10505 10511 1
10506 10509 1
10506 10510 1
10511 10509 1
10511 10510 1
10513 10516 1
10513 10519 1
10514 10517 1
10514 10518 1
10519 10517 1
10519 10518 1
10521 10524 1
10521 10528 1
10522 10525 1
10522 10526 1
10522 10527 1
10528 10525 1
10528 10526 1
10528 10527 1
10530 10533 1
10530 10536 1
10531 10534 1
10531 10535 1
10536 10534 1
10536 10535 1
10538 10541 1
10538 10544 1
10539 10542 1
10539 10543 1
10544 10542 1
10544 10543 1
10546 10549 1
10546 10552 1
10547 10550 1
10547 10551 1
10552 10550 1
10552 10551 1
10554 10557 1
10554 10562 1
10555 10558 1
10555 10560 1
10555 10561 1
10556 10559 1
10560 10559 1
10561 10559 1
10562 10558 1
10562 10560 1
10562 10561 1
10564 10567 1
10564 10572 1
10565 10568 1
10565 10570 1
10565 10571 1
10566 10569 1
10570 10569 1
10571 10569 1
10572 10568 1
10572 10570 1
10572 10571 1
10574 10577 1
10574 10580 1
10575 10578 1
10575 10579 1
10580 10578 1
10580 10579 1
10582 10585 1
10582 10588 1
10583 10586 1
10583 10587 1
10588 10586 1
10588 10587 1
10590 10593 1
10590 10596 1
10591 10594 1
10591 10595 1
10596 10594 1
10596 10595 1
10598 10601 1
10598 10604 1
10599 10602 1
10599 10603 1
10604 10602 1
10604 10603 1
10606 10609 1
10606 10612 1
10607 10610 1
10607 10611 1
10612 10610 1
10612 10611 1
10614 10617 1
10614 10620 1
10615 10618 1
10615 10619 1
10620 10618 1
10620 10619 1
10622 10625 1
10622 10628 1
10623 10626 1
10623 10627 1
10628 10626 1
10628 10627 1
10630 10633 1
10630 10638 1
10631 10634 1
10631 10636 1
10631 10637 1
10632 10635 1
10636 10635 1
10637 10635 1
10638 10634 1
10638 10636 1
10638 10637 1
10640 10643 1
10640 10646 1
10641 10644 1
10641 10645 1
10646 10644 1
10646 10645 1
10648 10651 1
10648 10654 1
10649 10652 1
10649 10653 1
10654 10652 1
10654 10653 1
10656 10659 1
10656 10662 1
10657 10660 1
10657 10661 1
10662 10660 1
10662 10661 1
10664 10667 1
10664 10670 1
10665 10668 1
10665 10669 1
10670 10668 1
10670 10669 1
10672 10675 1
10672 10679 1
10673 10676 1
10673 10677 1
10673 10678 1
10679 10676 1
10679 10677 1
10679 10678 1
10681 10684 1
10681 10689 1
10682 10685 1
10682 10687 1
10682 10688 1
10683 10686 1
10687 10686 1
10688 10686 1
10689 10685 1
10689 10687 1
10689 10688 1
10691 10694 1
10691 10698 1
10692 10695 1
10692 10696 1
10692 10697 1
10698 10695 1
10698 10696 1
10698 10697 1
10700 10703 1
10700 10706 1
10701 10704 1
10701 10705 1
10706 10704 1
10706 10705 1
10708 10711 1
10708 10714 1
10709 10712 1
10709 10713 1
10714 10712 1
10714 10713 1
10716 10719 1
10716 10722 1
10717 10720 1
10717 10721 1
10722 10720 1
10722 10721 1
10724 10727 1
10724 10731 1
10725 10728 1
10725 10729 1
10725 10730 1
10731 10728 1
10731 10729 1
10731 10730 1
10733 10736 1
10733 10739 1
10734 10737 1
10734 10738 1
10739 10737 1
10739 10738 1
10741 10744 1
10741 10747 1
10742 10745 1
10742 10746 1
10747 10745 1
10747 10746 1
10749 10752 1
10749 10755 1
10750 10753 1
10750 10754 1
10755 10753 1
10755 10754 1
10757 10760 1
10757 10763 1
10758 10761 1
10758 10762 1
10763 10761 1
10763 10762 1
10765 10768 1
10765 10771 1
10766 10769 1
10766 10770 1
10771 10769 1
10771 10770 1
10773 10776 1
10773 10779 1
10774 10777 1
10774 10778 1
10779 10777 1
10779 10778 1
10781 10784 1
10781 10787 1
10782 10785 1
10782 10786 1
10787 10785 1
10787 10786 1
10789 10792 1
10789 10795 1
10790 10793 1
10790 10794 1
10795 10793 1
10795 10794 1
10797 10800 1
10797 10803 1
10798 10801 1
10798 10802 1
10803 10801 1
10803 10802 1
10805 10808 1
10805 10812 1
10806 10809 1
10806 10810 1
10806 10811 1
10812 10809 1
10812 10810 1
10812 10811 1
10814 10817 1
10814 10821 1
10815 10818 1
10815 10819 1
10815 10820 1
10821 10818 1
10821 10819 1
10821 10820 1
10823 10826 1
10823 10829 1
10824 10827 1
10824 10828 1
10829 10827 1
10829 10828 1
10831 10834 1
10831 10837 1
10832 10835 1
10832 10836 1
10837 10835 1
10837 10836 1
10839 10842 1
10839 10847 1
10840 10843 1
10840 10845 1
10840 10846 1
10841 10844 1
10845 10844 1
10846 10844 1
10847 10843 1
10847 10845 1
10847 10846 1
10849 10852 1
10849 10855 1
10850 10853 1
10850 10854 1
10855 10853 1
10855 10854 1
10857 10860 1
10857 10863 1
10858 10861 1
10858 10862 1
10863 10861 1
10863 10862 1
10865 10868 1
10865 10872 1
10866 10869 1
10866 10870 1
10866 10871 1
10872 10869 1
10872 10870 1
10872 10871 1
10874 10877 1
10874 10880 1
10875 10878 1
10875 10879 1
10880 10878 1
10880 10879 1
10882 10885 1
10882 10890 1
10883 10886 1
10883 10888 1
10883 10889 1
10884 10887 1
10888 10887 1
10889 10887 1
10890 10886 1
10890 10888 1
10890 10889 1
10892 10895 1
10892 10898 1
10893 10896 1
10893 10897 1
10898 10896 1
10898 10897 1
10900 10903 1
10900 10906 1
10901 10904 1
10901 10905 1
10906 10904 1
10906 10905 1
10908 10911 1
10908 10914 1
10909 10912 1
10909 10913 1
10914 10912 1
10914 10913 1
10916 10919 1
10916 10922 1
10917 10920 1
10917 10921 1
10922 10920 1
10922 10921 1
10924 10927 1
10924 10930 1
10925 10928 1
10925 10929 1
10930 10928 1
10930 10929 1
10932 10935 1
10932 10938 1
10933 10936 1
10933 10937 1
10938 10936 1
10938 10937 1
10940 10943 1
10940 10947 1
10941 10944 1
10941 10945 1
10941 10946 1
10947 10944 1
10947 10945 1
10947 10946 1
10949 10952 1
10949 10957 1
10950 10953 1
10950 10955 1
10950 10956 1
10951 10954 1
10955 10954 1
10956 10954 1
10957 10953 1
10957 10955 1
10957 10956 1
10959 10962 1
10959 10965 1
10960 10963 1
10960 10964 1
10965 10963 1
10965 10964 1
10967 10970 1
10967 10973 1
10968 10971 1
10968 10972 1
10973 10971 1
10973 10972 1
10975 10978 1
10975 10981 1
10976 10979 1
10976 10980 1
10981 10979 1
10981 10980 1
10983 10986 1
10983 10989 1
10984 10987 1
10984 10988 1
10989 10987 1
10989 10988 1
10991 10994 1
10991 10997 1
10992 10995 1
10992 10996 1
10997 10995 1
10997 10996 1
10999 11002 1
10999 11005 1
11000 11003 1
11000 11004 1
11005 11003 1
11005 11004 1
11007 11010 1
11007 11014 1
11008 11011 1
11008 11012 1
11008 11013 1
11014 11011 1
11014 11012 1
11014 11013 1
11016 11019 1
11016 11022 1
11017 11020 1
11017 11021 1
11022 11020 1
11022 11021 1
11024 11027 1
11024 11031 1
11025 11028 1
11025 11029 1
11025 11030 1
11031 11028 1
11031 11029 1
11031 11030 1
11033 11036 1
11033 11039 1
11034 11037 1
11034 11038 1
11039 11037 1
11039 11038 1
11041 11044 1
11041 11047 1
11042 11045 1
11042 11046 1
11047 11045 1
11047 11046 1
11049 11052 1
11049 11055 1
11050 11053 1
11050 11054 1
11055 11053 1
11055 11054 1
11057 11060 1
11057 11063 1
11058 11061 1
11058 11062 1
11063 11061 1
11063 11062 1
11065 11068 1
11065 11071 1
11066 11069 1
11066 11070 1
11071 11069 1
11071 11070 1
11073 11076 1
11073 11079 1
11074 11077 1
11074 11078 1
11079 11077 1
11079 11078 1
11081 11084 1
11081 11087 1
11082 11085 1
11082 11086 1
11087 11085 1
11087 11086 1
11089 11092 1
11089 11095 1
11090 11093 1
11090 11094 1
11095 11093 1
11095 11094 1
11097 11100 1
11097 11103 1
11098 11101 1
11098 11102 1
11103 11101 1
11103 11102 1
11105 11108 1
11105 11111 1
11106 11109 1
11106 11110 1
11111 11109 1
11111 11110 1
11113 11116 1
11113 11119 1
11114 11117 1
11114 11118 1
11119 11117 1
11119 11118 1
11121 11124 1
11121 11127 1
11122 11125 1
11122 11126 1
11127 11125 1
11127 11126 1
11129 11132 1
11129 11136 1
11130 11133 1
11130 11134 1
11130 11135 1
11136 11133 1
11136 11134 1
11136 11135 1
11138 11141 1
11138 11144 1
11139 11142 1
11139 11143 1
11144 11142 1
11144 11143 1
11146 11149 1
11146 11153 1
11147 11150 1
11147 11151 1
11147 11152 1
11153 11150 1
11153 11151 1
11153 11152 1
11155 11158 1
11155 11161 1
11156 11159 1
11156 11160 1
11161 11159 1
11161 11160 1
11163 11166 1
11163 11169 1
11164 11167 1
11164 11168 1
11169 11167 1
11169 11168 1
11171 11174 1
11171 11179 1
11172 11175 1
11172 11177 1
11172 11178 1
11173 11176 1
11177 11176 1
11178 11176 1
11179 11175 1
11179 11177 1
11179 11178 1
11181 11184 1
11181 11187 1
11182 11185 1
11182 11186 1
11187 11185 1
11187 11186 1
11189 11192 1
11189 11195 1
11190 11193 1
11190 11194 1
11195 11193 1
11195 11194 1
11197 11200 1
11197 11205 1
11198 11201 1
11198 11203 1
11198 11204 1
11199 11202 1
11203 11202 1
11204 11202 1
11205 11201 1
11205 11203 1
11205 11204 1
11207 11210 1
11207 11215 1
11208 11211 1
11208 11213 1
11208 11214 1
11209 11212 1
11213 11212 1
11214 11212 1
11215 11211 1
11215 11213 1
11215 11214 1
11217 11220 1
11217 11223 1
11218 11221 1
11218 11222 1
11223 11221 1
11223 11222 1
11225 11228 1
11225 11232 1
11226 11229 1
11226 11230 1
11226 11231 1
11232 11229 1
11232 11230 1
11232 11231 1
11234 11237 1
11234 11242 1
11235 11238 1
11235 11240 1
11235 11241 1
11236 11239 1
11240 11239 1
11241 11239 1
11242 11238 1
11242 11240 1
11242 11241 1
11244 11247 1
11244 11250 1
11245 11248 1
11245 11249 1
11250 11248 1
11250 11249 1
11252 11255 1
11252 11258 1
11253 11256 1
11253 11257 1
11258 11256 1
11258 11257 1
11260 11263 1
11260 11266 1
11261 11264 1
11261 11265 1
11266 11264 1
11266 11265 1
11268 11271 1
11268 11274 1
11269 11272 1
11269 11273 1
11274 11272 1
11274 11273 1
11276 11279 1
11276 11283 1
11277 11280 1
11277 11281 1
11277 11282 1
11283 11280 1
11283 11281 1
11283 11282 1
11285 11288 1
11285 11291 1
11286 11289 1
11286 11290 1
11291 11289 1
11291 11290 1
11293 11296 1
11293 11299 1
11294 11297 1
11294 11298 1
11299 11297 1
11299 11298 1
11301 11304 1
11301 11307 1
11302 11305 1
11302 11306 1
11307 11305 1
11307 11306 1
11309 11312 1
11309 11315 1
11310 11313 1
11310 11314 1
11315 11313 1
11315 11314 1
11317 11320 1
11317 11323 1
11318 11321 1
11318 11322 1
11323 11321 1
11323 11322 1
11325 11328 1
11325 11331 1
11326 11329 1
11326 11330 1
11331 11329 1
11331 11330 1
11333 11336 1
11333 11339 1
11334 11337 1
11334 11338 1
11339 11337 1
11339 11338 1
11341 11344 1
11341 11347 1
11342 11345 1
11342 11346 1
11347 11345 1
11347 11346 1
11349 11352 1
11349 11355 1
11350 11353 1
11350 11354 1
11355 11353 1
11355 11354 1
11357 11360 1
11357 11363 1
11358 11361 1
11358 11362 1
11363 11361 1
11363 11362 1
11365 11368 1
11365 11371 1
11366 11369 1
11366 11370 1
11371 11369 1
11371 11370 1
11373 11376 1
11373 11379 1
11374 11377 1
11374 11378 1
11379 11377 1
11379 11378 1
11381 11384 1
11381 11387 1
11382 11385 1
11382 11386 1
11387 11385 1
11387 11386 1
11389 11392 1
11389 11395 1
11390 11393 1
11390 11394 1
11395 11393 1
11395 11394 1
11397 11400 1
11397 11404 1
11398 11401 1
11398 11402 1
11398 11403 1
11404 11401 1
11404 11402 1
11404 11403 1
11406 11409 1
11406 11412 1
11407 11410 1
11407 11411 1
11412 11410 1
11412 11411 1
11414 11417 1
11414 11420 1
11415 11418 1
11415 11419 1
11420 11418 1
11420 11419 1
11422 11425 1
11422 11428 1
11423 11426 1
11423 11427 1
11428 11426 1
11428 11427 1
11430 11433 1
11430 11436 1
11431 11434 1
11431 11435 1
11436 11434 1
11436 11435 1
11438 11441 1
11438 11444 1
11439 11442 1
11439 11443 1
11444 11442 1
11444 11443 1
11446 11449 1
11446 11452 1
11447 11450 1
11447 11451 1
11452 11450 1
11452 11451 1
11454 11457 1
11454 11460 1
11455 11458 1
11455 11459 1
11460 11458 1
11460 11459 1
11462 11465 1
11462 11468 1
11463 11466 1
11463 11467 1
11468 11466 1
11468 11467 1
11470 11473 1
11470 11478 1
11471 11474 1
11471 11476 1
11471 11477 1
11472 11475 1
11476 11475 1
11477 11475 1
11478 11474 1
11478 11476 1
11478 11477 1
11480 11483 1
11480 11486 1
11481 11484 1
11481 11485 1
11486 11484 1
11486 11485 1
11488 11491 1
11488 11494 1
11489 11492 1
11489 11493 1
11494 11492 1
11494 11493 1
11496 11499 1
11496 11502 1
11497 11500 1
11497 11501 1
11502 11500 1
11502 11501 1
11504 11507 1
11504 11510 1
11505 11508 1
11505 11509 1
11510 11508 1
11510 11509 1
11512 11515 1
11512 11518 1
11513 11516 1
11513 11517 1
11518 11516 1
11518 11517 1
11520 11523 1
11520 11528 1
11521 11524 1
11521 11526 1
11521 11527 1
11522 11525 1
11526 11525 1
11527 11525 1
11528 11524 1
11528 11526 1
11528 11527 1
11530 11533 1
11530 11538 1
11531 11534 1
11531 11536 1
11531 11537 1
11532 11535 1
11536 11535 1
11537 11535 1
11538 11534 1
11538 11536 1
11538 11537 1
11540 11543 1
11540 11546 1
11541 11544 1
11541 11545 1
11546 11544 1
11546 11545 1
11548 11551 1
11548 11554 1
11549 11552 1
11549 11553 1
11554 11552 1
11554 11553 1
11556 11559 1
11556 11563 1
11557 11560 1
11557 11561 1
11557 11562 1
11563 11560 1
11563 11561 1
11563 11562 1
11565 11568 1
11565 11571 1
11566 11569 1
11566 11570 1
11571 11569 1
11571 11570 1
11573 11576 1
11573 11579 1
11574 11577 1
11574 11578 1
11579 11577 1
11579 11578 1
11581 11584 1
11581 11587 1
11582 11585 1
11582 11586 1
11587 11585 1
11587 11586 1
11589 11592 1
11589 11595 1
11590 11593 1
11590 11594 1
11595 11593 1
11595 11594 1
11597 11600 1
11597 11605 1
11598 11601 1
11598 11603 1
11598 11604 1
11599 11602 1
11603 11602 1
11604 11602 1
11605 11601 1
11605 11603 1
11605 11604 1
11607 11610 1
11607 11613 1
11608 11611 1
11608 11612 1
11613 11611 1
11613 11612 1
11615 11618 1
11615 11621 1
11616 11619 1
11616 11620 1
11621 11619 1
11621 11620 1
11623 11626 1
11623 11629 1
11624 11627 1
11624 11628 1
11629 11627 1
11629 11628 1
11631 11634 1
11631 11637 1
11632 11635 1
11632 11636 1
11637 11635 1
11637 11636 1
11639 11642 1
11639 11645 1
11640 11643 1
11640 11644 1
11645 11643 1
11645 11644 1
11647 11650 1
11647 11653 1
11648 11651 1
11648 11652 1
11653 11651 1
11653 11652 1
11655 11658 1
11655 11661 1
11656 11659 1
11656 11660 1
11661 11659 1
11661 11660 1
11663 11666 1
11663 11671 1
11664 11667 1
11664 11669 1
11664 11670 1
11665 11668 1
11669 11668 1
11670 11668 1
11671 11667 1
11671 11669 1
11671 11670 1
11673 11676 1
11673 11681 1
11674 11677 1
11674 11679 1
11674 11680 1
11675 11678 1
11679 11678 1
11680 11678 1
11681 11677 1
11681 11679 1
11681 11680 1
11683 11686 1
11683 11689 1
11684 11687 1
11684 11688 1
11689 11687 1
11689 11688 1
11691 11694 1
11691 11697 1
11692 11695 1
11692 11696 1
11697 11695 1
11697 11696 1
11699 11702 1
11699 11705 1
11700 11703 1
11700 11704 1
11705 11703 1
11705 11704 1
11707 11710 1
11707 11714 1
11708 11711 1
11708 11712 1
11708 11713 1
11714 11711 1
11714 11712 1
11714 11713 1
11716 11719 1
11716 11722 1
11717 11720 1
11717 11721 1
11722 11720 1
11722 11721 1
11724 11727 1
11724 11730 1
11725 11728 1
11725 11729 1
11730 11728 1
11730 11729 1
11732 11735 1
11732 11738 1
11733 11736 1
11733 11737 1
11738 11736 1
11738 11737 1
11740 11743 1
11740 11746 1
11741 11744 1
11741 11745 1
11746 11744 1
11746 11745 1
11748 11751 1
11748 11754 1
11749 11752 1
11749 11753 1
11754 11752 1
11754 11753 1
11756 11759 1
11756 11762 1
11757 11760 1
11757 11761 1
11762 11760 1
11762 11761 1
11764 11767 1
11764 11770 1
11765 11768 1
11765 11769 1
11770 11768 1
11770 11769 1
11772 11775 1
11772 11778 1
11773 11776 1
11773 11777 1
11778 11776 1
11778 11777 1
11780 11783 1
11780 11786 1
11781 11784 1
11781 11785 1
11786 11784 1
11786 11785 1
11788 11791 1
11788 11795 1
11789 11792 1
11789 11793 1
11789 11794 1
11795 11792 1
11795 11793 1
11795 11794 1
11797 11800 1
11797 11803 1
11798 11801 1
11798 11802 1
11803 11801 1
11803 11802 1
11805 11808 1
11805 11811 1
11806 11809 1
11806 11810 1
11811 11809 1
11811 11810 1
11813 11816 1
11813 11819 1
11814 11817 1
11814 11818 1
11819 11817 1
11819 11818 1
11821 11824 1
11821 11827 1
11822 11825 1
11822 11826 1
11827 11825 1
11827 11826 1
11829 11832 1
11829 11836 1
11830 11833 1
11830 11834 1
11830 11835 1
11836 11833 1
11836 11834 1
11836 11835 1
11838 11841 1
11838 11844 1
11839 11842 1
11839 11843 1
11844 11842 1
11844 11843 1
11846 11849 1
11846 11852 1
11847 11850 1
11847 11851 1
11852 11850 1
11852 11851 1
11854 11857 1
11854 11861 1
11855 11858 1
11855 11859 1
11855 11860 1
11861 11858 1
11861 11859 1
11861 11860 1
11863 11866 1
11863 11869 1
11864 11867 1
11864 11868 1
11869 11867 1
11869 11868 1
11871 11874 1
11871 11877 1
11872 11875 1
11872 11876 1
11877 11875 1
11877 11876 1
11879 11882 1
11879 11885 1
11880 11883 1
11880 11884 1
11885 11883 1
11885 11884 1
11887 11890 1
11887 11893 1
11888 11891 1
11888 11892 1
11893 11891 1
11893 11892 1
11895 11898 1
11895 11901 1
11896 11899 1
11896 11900 1
11901 11899 1
11901 11900 1
11903 11906 1
11903 11910 1
11904 11907 1
11904 11908 1
11904 11909 1
11910 11907 1
11910 11908 1
11910 11909 1
11912 11915 1
11912 11918 1
11913 11916 1
11913 11917 1
11918 11916 1
11918 11917 1
11920 11923 1
11920 11926 1
11921 11924 1
11921 11925 1
11926 11924 1
11926 11925 1
11928 11931 1
11928 11935 1
11929 11932 1
11929 11933 1
11929 11934 1
11935 11932 1
11935 11933 1
11935 11934 1
11937 11940 1
11937 11943 1
11938 11941 1
11938 11942 1
11943 11941 1
11943 11942 1
11945 11948 1
11945 11951 1
11946 11949 1
11946 11950 1
11951 11949 1
11951 11950 1
11953 11956 1
11953 11959 1
11954 11957 1
11954 11958 1
11959 11957 1
11959 11958 1
11961 11964 1
11961 11967 1
11962 11965 1
11962 11966 1
11967 11965 1
11967 11966 1
11969 11972 1
11969 11976 1
11970 11973 1
11970 11974 1
11970 11975 1
11976 11973 1
11976 11974 1
11976 11975 1
11978 11981 1
11978 11984 1
11979 11982 1
11979 11983 1
11984 11982 1
11984 11983 1
11986 11989 1
11986 11994 1
11987 11990 1
11987 11992 1
11987 11993 1
11988 11991 1
11992 11991 1
11993 11991 1
11994 11990 1
11994 11992 1
11994 11993 1
11996 11999 1
11996 12002 1
11997 12000 1
11997 12001 1
12002 12000 1
12002 12001 1
12004 12007 1
12004 12012 1
12005 12008 1
12005 12010 1
12005 12011 1
12006 12009 1
12010 12009 1
12011 12009 1
12012 12008 1
12012 12010 1
12012 12011 1
12014 12017 1
12014 12020 1
12015 12018 1
12015 12019 1
12020 12018 1
12020 12019 1
12022 12025 1
12022 12028 1
12023 12026 1
12023 12027 1
12028 12026 1
12028 12027 1
12030 12033 1
12030 12036 1
12031 12034 1
12031 12035 1
12036 12034 1
12036 12035 1
12038 12041 1
12038 12044 1
12039 12042 1
12039 12043 1
12044 12042 1
12044 12043 1
12046 12049 1
12046 12052 1
12047 12050 1
12047 12051 1
12052 12050 1
12052 12051 1
12054 12057 1
12054 12060 1
12055 12058 1
12055 12059 1
12060 12058 1
12060 12059 1
12062 12065 1
12062 12070 1
12063 12066 1
12063 12068 1
12063 12069 1
12064 12067 1
12068 12067 1
12069 12067 1
12070 12066 1
12070 12068 1
12070 12069 1
12072 12075 1
12072 12078 1
12073 12076 1
12073 12077 1
12078 12076 1
12078 12077 1
12080 12083 1
12080 12086 1
12081 12084 1
12081 12085 1
12086 12084 1
12086 12085 1
12088 12091 1
12088 12094 1
12089 12092 1
12089 12093 1
12094 12092 1
12094 12093 1
12096 12099 1
12096 12102 1
12097 12100 1
12097 12101 1
12102 12100 1
12102 12101 1
12104 12107 1
12104 12110 1
12105 12108 1
12105 12109 1
12110 12108 1
12110 12109 1
12112 12115 1
12112 12118 1
12113 12116 1
12113 12117 1
12118 12116 1
12118 12117 1
12120 12123 1
12120 12126 1
12121 12124 1
12121 12125 1
12126 12124 1
12126 12125 1
12128 12131 1
12128 12134 1
12129 12132 1
12129 12133 1
12134 12132 1
12134 12133 1
12136 12139 1
12136 12142 1
12137 12140 1
12137 12141 1
12142 12140 1
12142 12141 1
12144 12147 1
12144 12150 1
12145 12148 1
12145 12149 1
12150 12148 1
12150 12149 1
12152 12155 1
12152 12158 1
12153 12156 1
12153 12157 1
12158 12156 1
12158 12157 1
12160 12163 1
12160 12166 1
12161 12164 1
12161 12165 1
12166 12164 1
12166 12165 1
12168 12171 1
12168 12174 1
12169 12172 1
12169 12173 1
12174 12172 1
12174 12173 1
12176 12179 1
12176 12182 1
12177 12180 1
12177 12181 1
12182 12180 1
12182 12181 1
12184 12187 1
12184 12192 1
12185 12188 1
12185 12190 1
12185 12191 1
12186 12189 1
12190 12189 1
12191 12189 1
12192 12188 1
12192 12190 1
12192 12191 1
12194 12197 1
12194 12201 1
12195 12198 1
12195 12199 1
12195 12200 1
12201 12198 1
12201 12199 1
12201 12200 1
12203 12206 1
12203 12211 1
12204 12207 1
12204 12209 1
12204 12210 1
12205 12208 1
12209 12208 1
12210 12208 1
12211 12207 1
12211 12209 1
12211 12210 1
12213 12216 1
12213 12219 1
12214 12217 1
12214 12218 1
12219 12217 1
12219 12218 1
12221 12224 1
12221 12227 1
12222 12225 1
12222 12226 1
12227 12225 1
12227 12226 1
12229 12232 1
12229 12235 1
12230 12233 1
12230 12234 1
12235 12233 1
12235 12234 1
12237 12240 1
12237 12245 1
12238 12241 1
12238 12243 1
12238 12244 1
12239 12242 1
12243 12242 1
12244 12242 1
12245 12241 1
12245 12243 1
12245 12244 1
12247 12250 1
12247 12253 1
12248 12251 1
12248 12252 1
12253 12251 1
12253 12252 1
12255 12258 1
12255 12261 1
12256 12259 1
12256 12260 1
12261 12259 1
12261 12260 1
12263 12266 1
12263 12269 1
12264 12267 1
12264 12268 1
12269 12267 1
12269 12268 1
12271 12274 1
12271 12277 1
12272 12275 1
12272 12276 1
12277 12275 1
12277 12276 1
12279 12282 1
12279 12285 1
12280 12283 1
12280 12284 1
12285 12283 1
12285 12284 1
12287 12290 1
12287 12293 1
12288 12291 1
12288 12292 1
12293 12291 1
12293 12292 1
12295 12298 1
12295 12301 1
12296 12299 1
12296 12300 1
12301 12299 1
12301 12300 1
12303 12306 1
12303 12309 1
12304 12307 1
12304 12308 1
12309 12307 1
12309 12308 1
12311 12314 1
12311 12317 1
12312 12315 1
12312 12316 1
12317 12315 1
12317 12316 1
12319 12322 1
12319 12325 1
12320 12323 1
12320 12324 1
12325 12323 1
12325 12324 1
12327 12330 1
12327 12333 1
12328 12331 1
12328 12332 1
12333 12331 1
12333 12332 1
12335 12338 1
12335 12341 1
12336 12339 1
12336 12340 1
12341 12339 1
12341 12340 1
12343 12346 1
12343 12349 1
12344 12347 1
12344 12348 1
12349 12347 1
12349 12348 1
12351 12354 1
12351 12357 1
12352 12355 1
12352 12356 1
12357 12355 1
12357 12356 1
12359 12362 1
12359 12365 1
12360 12363 1
12360 12364 1
12365 12363 1
12365 12364 1
12367 12370 1
12367 12373 1
12368 12371 1
12368 12372 1
12373 12371 1
12373 12372 1
12375 12378 1
12375 12381 1
12376 12379 1
12376 12380 1
12381 12379 1
12381 12380 1
12383 12386 1
12383 12389 1
12384 12387 1
12384 12388 1
12389 12387 1
12389 12388 1
12391 12394 1
12391 12397 1
12392 12395 1
12392 12396 1
12397 12395 1
12397 12396 1
12399 12402 1
12399 12405 1
12400 12403 1
12400 12404 1
12405 12403 1
12405 12404 1
12407 12410 1
12407 12413 1
12408 12411 1
12408 12412 1
12413 12411 1
12413 12412 1
12415 12418 1
12415 12423 1
12416 12419 1
12416 12421 1
12416 12422 1
12417 12420 1
12421 12420 1
12422 12420 1
12423 12419 1
12423 12421 1
12423 12422 1
12425 12428 1
12425 12431 1
12426 12429 1
12426 12430 1
12431 12429 1
12431 12430 1
12433 12436 1
12433 12439 1
12434 12437 1
12434 12438 1
12439 12437 1
12439 12438 1
12441 12444 1
12441 12447 1
12442 12445 1
12442 12446 1
12447 12445 1
12447 12446 1
12449 12452 1
12449 12455 1
12450 12453 1
12450 12454 1
12455 12453 1
12455 12454 1
12457 12460 1
12457 12463 1
12458 12461 1
12458 12462 1
12463 12461 1
12463 12462 1
12465 12468 1
12465 12471 1
12466 12469 1
12466 12470 1
12471 12469 1
12471 12470 1
12473 12476 1
12473 12479 1
12474 12477 1
12474 12478 1
12479 12477 1
12479 12478 1
12481 12484 1
12481 12487 1
12482 12485 1
12482 12486 1
12487 12485 1
12487 12486 1
12489 12492 1
12489 12497 1
12490 12493 1
12490 12495 1
12490 12496 1
12491 12494 1
12495 12494 1
12496 12494 1
12497 12493 1
12497 12495 1
12497 12496 1
12499 12502 1
12499 12505 1
12500 12503 1
12500 12504 1
12505 12503 1
12505 12504 1
12507 12510 1
12507 12513 1
12508 12511 1
12508 12512 1
12513 12511 1
12513 12512 1
12515 12518 1
12515 12523 1
12516 12519 1
12516 12521 1
12516 12522 1
12517 12520 1
12521 12520 1
12522 12520 1
12523 12519 1
12523 12521 1
12523 12522 1
12525 12528 1
12525 12531 1
12526 12529 1
12526 12530 1
12531 12529 1
12531 12530 1
12533 12536 1
12533 12539 1
12534 12537 1
12534 12538 1
12539 12537 1
12539 12538 1
12541 12544 1
12541 12547 1
12542 12545 1
12542 12546 1
12547 12545 1
12547 12546 1
12549 12552 1
12549 12557 1
12550 12553 1
12550 12555 1
12550 12556 1
12551 12554 1
12555 12554 1
12556 12554 1
12557 12553 1
12557 12555 1
12557 12556 1
12559 12562 1
12559 12565 1
12560 12563 1
12560 12564 1
12565 12563 1
12565 12564 1
12567 12570 1
12567 12573 1
12568 12571 1
12568 12572 1
12573 12571 1
12573 12572 1
12575 12578 1
12575 12581 1
12576 12579 1
12576 12580 1
12581 12579 1
12581 12580 1
12583 12586 1
12583 12589 1
12584 12587 1
12584 12588 1
12589 12587 1
12589 12588 1
12591 12594 1
12591 12597 1
12592 12595 1
12592 12596 1
12597 12595 1
12597 12596 1
12599 12602 1
12599 12605 1
12600 12603 1
12600 12604 1
12605 12603 1
12605 12604 1
12607 12610 1
12607 12613 1
12608 12611 1
12608 12612 1
12613 12611 1
12613 12612 1
12615 12618 1
12615 12621 1
12616 12619 1
12616 12620 1
12621 12619 1
12621 12620 1
12623 12626 1
12623 12629 1
12624 12627 1
12624 12628 1
12629 12627 1
12629 12628 1
12631 12634 1
12631 12637 1
12632 12635 1
12632 12636 1
12637 12635 1
12637 12636 1
12639 12642 1
12639 12645 1
12640 12643 1
12640 12644 1
12645 12643 1
12645 12644 1
12647 12650 1
12647 12653 1
12648 12651 1
12648 12652 1
12653 12651 1
12653 12652 1
12655 12658 1
12655 12661 1
12656 12659 1
12656 12660 1
12661 12659 1
12661 12660 1
12663 12666 1
12663 12669 1
12664 12667 1
12664 12668 1
12669 12667 1
12669 12668 1
12671 12674 1
12671 12679 1
12672 12675 1
12672 12677 1
12672 12678 1
12673 12676 1
12677 12676 1
12678 12676 1
12679 12675 1
12679 12677 1
12679 12678 1
12681 12684 1
12681 12687 1
12682 12685 1
12682 12686 1
12687 12685 1
12687 12686 1
12689 12692 1
12689 12695 1
12690 12693 1
12690 12694 1
12695 12693 1
12695 12694 1
12697 12700 1
12697 12703 1
12698 12701 1
12698 12702 1
12703 12701 1
12703 12702 1
12705 12708 1
12705 12711 1
12706 12709 1
12706 12710 1
12711 12709 1
12711 12710 1
12713 12716 1
12713 12719 1
12714 12717 1
12714 12718 1
12719 12717 1
12719 12718 1
12721 12724 1
12721 12727 1
12722 12725 1
12722 12726 1
12727 12725 1
12727 12726 1
12729 12732 1
12729 12735 1
12730 12733 1
12730 12734 1
12735 12733 1
12735 12734 1
12737 12740 1
12737 12743 1
12738 12741 1
12738 12742 1
12743 12741 1
12743 12742 1
12745 12748 1
12745 12751 1
12746 12749 1
12746 12750 1
12751 12749 1
12751 12750 1
12753 12756 1
12753 12759 1
12754 12757 1
12754 12758 1
12759 12757 1
12759 12758 1
12761 12764 1
12761 12767 1
12762 12765 1
12762 12766 1
12767 12765 1
12767 12766 1
12769 12772 1
12769 12775 1
12770 12773 1
12770 12774 1
12775 12773 1
12775 12774 1
12777 12780 1
12777 12783 1
12778 12781 1
12778 12782 1
12783 12781 1
12783 12782 1
12785 12788 1
12785 12791 1
12786 12789 1
12786 12790 1
12791 12789 1
12791 12790 1
12793 12796 1
12793 12799 1
12794 12797 1
12794 12798 1
12799 12797 1
12799 12798 1
12801 12804 1
12801 12807 1
12802 12805 1
12802 12806 1
12807 12805 1
12807 12806 1
12809 12812 1
12809 12815 1
12810 12813 1
12810 12814 1
12815 12813 1
12815 12814 1
12817 12820 1
12817 12823 1
12818 12821 1
12818 12822 1
12823 12821 1
12823 12822 1
12825 12828 1
12825 12831 1
12826 12829 1
12826 12830 1
12831 12829 1
12831 12830 1
12833 12836 1
12833 12841 1
12834 12837 1
12834 12839 1
12834 12840 1
12835 12838 1
12839 12838 1
12840 12838 1
12841 12837 1
12841 12839 1
12841 12840 1
12843 12846 1
12843 12849 1
12844 12847 1
12844 12848 1
12849 12847 1
12849 12848 1
12851 12854 1
12851 12857 1
12852 12855 1
12852 12856 1
12857 12855 1
12857 12856 1
12859 12862 1
12859 12867 1
12860 12863 1
12860 12865 1
12860 12866 1
12861 12864 1
12865 12864 1
12866 12864 1
12867 12863 1
12867 12865 1
12867 12866 1
12869 12872 1
12869 12877 1
12870 12873 1
12870 12875 1
12870 12876 1
12871 12874 1
12875 12874 1
12876 12874 1
12877 12873 1
12877 12875 1
12877 12876 1
12879 12882 1
12879 12885 1
12880 12883 1
12880 12884 1
12885 12883 1
12885 12884 1
12887 12890 1
12887 12893 1
12888 12891 1
12888 12892 1
12893 12891 1
12893 12892 1
12895 12898 1
12895 12901 1
12896 12899 1
12896 12900 1
12901 12899 1
12901 12900 1
12903 12906 1
12903 12911 1
12904 12907 1
12904 12909 1
12904 12910 1
12905 12908 1
12909 12908 1
12910 12908 1
12911 12907 1
12911 12909 1
12911 12910 1
12913 12916 1
12913 12919 1
12914 12917 1
12914 12918 1
12919 12917 1
12919 12918 1
12921 12924 1
12921 12927 1
12922 12925 1
12922 12926 1
12927 12925 1
12927 12926 1
12929 12932 1
12929 12935 1
12930 12933 1
12930 12934 1
12935 12933 1
12935 12934 1
12937 12940 1
12937 12943 1
12938 12941 1
12938 12942 1
12943 12941 1
12943 12942 1
12945 12948 1
12945 12951 1
12946 12949 1
12946 12950 1
12951 12949 1
12951 12950 1
12953 12956 1
12953 12959 1
12954 12957 1
12954 12958 1
12959 12957 1
12959 12958 1
12961 12964 1
12961 12967 1
12962 12965 1
12962 12966 1
12967 12965 1
12967 12966 1
12969 12972 1
12969 12975 1
12970 12973 1
12970 12974 1
12975 12973 1
12975 12974 1

[ cross_bonds ]
1 10 8 1.0 1.0 ; static  ; cg_bonded
1 19 8 1.0 1.0 ; static  ; cg_bonded
1 5541 8 1.0 1.0 ; chem  ; cg_bonded
2 21 1 0.135 402500.8
3 11 1 0.136 402500.8
6 5545 1 0.143 267776.0
10 19 8 1.0 1.0 ; static  ; cg_bonded
10 4311 8 1.0 1.0 ; chem  ; cg_bonded
12 20 1 0.135 402500.8
15 4315 1 0.143 267776.0
19 4864 8 1.0 1.0 ; chem  ; cg_bonded
24 4868 1 0.143 267776.0
28 37 8 1.0 1.0 ; static  ; cg_bonded
28 47 8 1.0 1.0 ; static  ; cg_bonded
28 1705 8 1.0 1.0 ; chem  ; cg_bonded
29 49 1 0.135 402500.8
30 38 1 0.136 402500.8
33 1709 1 0.143 267776.0
37 47 8 1.0 1.0 ; static  ; cg_bonded
39 48 1 0.135 402500.8
57 66 8 1.0 1.0 ; static  ; cg_bonded
57 75 8 1.0 1.0 ; static  ; cg_bonded
57 4147 8 1.0 1.0 ; chem  ; cg_bonded
58 77 1 0.135 402500.8
59 67 1 0.136 402500.8
62 4151 1 0.143 267776.0
66 75 8 1.0 1.0 ; static  ; cg_bonded
66 11731 8 1.0 1.0 ; chem  ; cg_bonded
68 76 1 0.135 402500.8
71 11735 1 0.143 267776.0
75 8326 8 1.0 1.0 ; chem  ; cg_bonded
80 8330 1 0.143 267776.0
84 93 8 1.0 1.0 ; static  ; cg_bonded
84 103 8 1.0 1.0 ; static  ; cg_bonded
84 4960 8 1.0 1.0 ; chem  ; cg_bonded
85 105 1 0.135 402500.8
86 94 1 0.136 402500.8
89 4964 1 0.143 267776.0
93 103 8 1.0 1.0 ; static  ; cg_bonded
95 104 1 0.135 402500.8
103 722 8 1.0 1.0 ; chem  ; cg_bonded
108 726 1 0.143 267776.0
112 121 8 1.0 1.0 ; static  ; cg_bonded
112 130 8 1.0 1.0 ; static  ; cg_bonded
112 2692 8 1.0 1.0 ; chem  ; cg_bonded
113 132 1 0.135 402500.8
114 122 1 0.136 402500.8
117 2696 1 0.143 267776.0
121 130 8 1.0 1.0 ; static  ; cg_bonded
121 1697 8 1.0 1.0 ; chem  ; cg_bonded
123 131 1 0.135 402500.8
126 1701 1 0.143 267776.0
130 2422 8 1.0 1.0 ; chem  ; cg_bonded
135 2426 1 0.143 267776.0
139 148 8 1.0 1.0 ; static  ; cg_bonded
139 157 8 1.0 1.0 ; static  ; cg_bonded
139 9338 8 1.0 1.0 ; chem  ; cg_bonded
140 159 1 0.135 402500.8
141 149 1 0.136 402500.8
144 9342 1 0.143 267776.0
148 157 8 1.0 1.0 ; static  ; cg_bonded
148 10504 8 1.0 1.0 ; chem  ; cg_bonded
150 158 1 0.135 402500.8
153 10508 1 0.143 267776.0
157 10699 8 1.0 1.0 ; chem  ; cg_bonded
162 10703 1 0.143 267776.0
166 175 8 1.0 1.0 ; static  ; cg_bonded
166 184 8 1.0 1.0 ; static  ; cg_bonded
166 12646 8 1.0 1.0 ; chem  ; cg_bonded
167 186 1 0.135 402500.8
168 176 1 0.136 402500.8
171 12650 1 0.143 267776.0
175 184 8 1.0 1.0 ; static  ; cg_bonded
175 3811 8 1.0 1.0 ; chem  ; cg_bonded
177 185 1 0.135 402500.8
180 3815 1 0.143 267776.0
184 9700 8 1.0 1.0 ; chem  ; cg_bonded
189 9704 1 0.143 267776.0
193 202 8 1.0 1.0 ; static  ; cg_bonded
193 211 8 1.0 1.0 ; static  ; cg_bonded
193 12286 8 1.0 1.0 ; chem  ; cg_bonded
194 213 1 0.135 402500.8
195 203 1 0.136 402500.8
198 12290 1 0.143 267776.0
202 211 8 1.0 1.0 ; static  ; cg_bonded
202 3505 8 1.0 1.0 ; chem  ; cg_bonded
204 212 1 0.135 402500.8
207 3509 1 0.143 267776.0
221 230 8 1.0 1.0 ; static  ; cg_bonded
221 239 8 1.0 1.0 ; static  ; cg_bonded
221 8849 8 1.0 1.0 ; chem  ; cg_bonded
222 241 1 0.135 402500.8
223 231 1 0.136 402500.8
226 8853 1 0.143 267776.0
230 239 8 1.0 1.0 ; static  ; cg_bonded
230 6436 8 1.0 1.0 ; chem  ; cg_bonded
232 240 1 0.135 402500.8
235 6440 1 0.143 267776.0
239 7820 8 1.0 1.0 ; chem  ; cg_bonded
244 7824 1 0.143 267776.0
248 258 8 1.0 1.0 ; static  ; cg_bonded
248 267 8 1.0 1.0 ; static  ; cg_bonded
249 269 1 0.135 402500.8
250 259 1 0.136 402500.8
258 267 8 1.0 1.0 ; static  ; cg_bonded
258 3102 8 1.0 1.0 ; chem  ; cg_bonded
260 268 1 0.135 402500.8
263 3106 1 0.143 267776.0
267 4068 8 1.0 1.0 ; chem  ; cg_bonded
272 4072 1 0.143 267776.0
276 285 8 1.0 1.0 ; static  ; cg_bonded
276 294 8 1.0 1.0 ; static  ; cg_bonded
276 7795 8 1.0 1.0 ; chem  ; cg_bonded
277 296 1 0.135 402500.8
278 286 1 0.136 402500.8
281 7799 1 0.143 267776.0
285 294 8 1.0 1.0 ; static  ; cg_bonded
285 2098 8 1.0 1.0 ; chem  ; cg_bonded
287 295 1 0.135 402500.8
290 2102 1 0.143 267776.0
294 7267 8 1.0 1.0 ; chem  ; cg_bonded
299 7271 1 0.143 267776.0
303 312 8 1.0 1.0 ; static  ; cg_bonded
303 321 8 1.0 1.0 ; static  ; cg_bonded
303 5367 8 1.0 1.0 ; chem  ; cg_bonded
304 323 1 0.135 402500.8
305 313 1 0.136 402500.8
308 5371 1 0.143 267776.0
312 321 8 1.0 1.0 ; static  ; cg_bonded
312 8866 8 1.0 1.0 ; chem  ; cg_bonded
314 322 1 0.135 402500.8
317 8870 1 0.143 267776.0
321 4487 8 1.0 1.0 ; chem  ; cg_bonded
326 4491 1 0.143 267776.0
330 339 8 1.0 1.0 ; static  ; cg_bonded
330 349 8 1.0 1.0 ; static  ; cg_bonded
330 3170 8 1.0 1.0 ; chem  ; cg_bonded
331 351 1 0.135 402500.8
332 340 1 0.136 402500.8
335 3174 1 0.143 267776.0
339 349 8 1.0 1.0 ; static  ; cg_bonded
341 350 1 0.135 402500.8
349 795 8 1.0 1.0 ; chem  ; cg_bonded
354 799 1 0.143 267776.0
358 367 8 1.0 1.0 ; static  ; cg_bonded
358 377 8 1.0 1.0 ; static  ; cg_bonded
358 8807 8 1.0 1.0 ; chem  ; cg_bonded
359 379 1 0.135 402500.8
360 368 1 0.136 402500.8
363 8811 1 0.143 267776.0
367 377 8 1.0 1.0 ; static  ; cg_bonded
369 378 1 0.135 402500.8
377 6061 8 1.0 1.0 ; chem  ; cg_bonded
382 6065 1 0.143 267776.0
386 395 8 1.0 1.0 ; static  ; cg_bonded
386 405 8 1.0 1.0 ; static  ; cg_bonded
386 12850 8 1.0 1.0 ; chem  ; cg_bonded
387 407 1 0.135 402500.8
388 396 1 0.136 402500.8
391 12854 1 0.143 267776.0
395 405 8 1.0 1.0 ; static  ; cg_bonded
397 406 1 0.135 402500.8
405 10187 8 1.0 1.0 ; chem  ; cg_bonded
410 10191 1 0.143 267776.0
414 423 8 1.0 1.0 ; static  ; cg_bonded
414 432 8 1.0 1.0 ; static  ; cg_bonded
414 3153 8 1.0 1.0 ; chem  ; cg_bonded
415 434 1 0.135 402500.8
416 424 1 0.136 402500.8
419 3157 1 0.143 267776.0
423 432 8 1.0 1.0 ; static  ; cg_bonded
423 9676 8 1.0 1.0 ; chem  ; cg_bonded
425 433 1 0.135 402500.8
428 9680 1 0.143 267776.0
432 11690 8 1.0 1.0 ; chem  ; cg_bonded
437 11694 1 0.143 267776.0
441 450 8 1.0 1.0 ; static  ; cg_bonded
441 459 8 1.0 1.0 ; static  ; cg_bonded
441 5022 8 1.0 1.0 ; chem  ; cg_bonded
442 461 1 0.135 402500.8
443 451 1 0.136 402500.8
446 5026 1 0.143 267776.0
450 459 8 1.0 1.0 ; static  ; cg_bonded
450 7768 8 1.0 1.0 ; chem  ; cg_bonded
452 460 1 0.135 402500.8
455 7772 1 0.143 267776.0
459 522 8 1.0 1.0 ; chem  ; cg_bonded
464 526 1 0.143 267776.0
468 477 8 1.0 1.0 ; static  ; cg_bonded
468 486 8 1.0 1.0 ; static  ; cg_bonded
468 4795 8 1.0 1.0 ; chem  ; cg_bonded
469 488 1 0.135 402500.8
470 478 1 0.136 402500.8
473 4799 1 0.143 267776.0
477 486 8 1.0 1.0 ; static  ; cg_bonded
477 7061 8 1.0 1.0 ; chem  ; cg_bonded
479 487 1 0.135 402500.8
482 7065 1 0.143 267776.0
486 11503 8 1.0 1.0 ; chem  ; cg_bonded
491 11507 1 0.143 267776.0
495 504 8 1.0 1.0 ; static  ; cg_bonded
495 513 8 1.0 1.0 ; static  ; cg_bonded
495 8695 8 1.0 1.0 ; chem  ; cg_bonded
496 515 1 0.135 402500.8
497 505 1 0.136 402500.8
500 8699 1 0.143 267776.0
504 513 8 1.0 1.0 ; static  ; cg_bonded
504 8157 8 1.0 1.0 ; chem  ; cg_bonded
506 514 1 0.135 402500.8
509 8161 1 0.143 267776.0
513 7605 8 1.0 1.0 ; chem  ; cg_bonded
518 7609 1 0.143 267776.0
522 530 8 1.0 1.0 ; static  ; cg_bonded
522 539 8 1.0 1.0 ; static  ; cg_bonded
523 541 1 0.135 402500.8
524 531 1 0.136 402500.8
530 539 8 1.0 1.0 ; static  ; cg_bonded
530 9626 8 1.0 1.0 ; chem  ; cg_bonded
532 540 1 0.135 402500.8
535 9630 1 0.143 267776.0
539 7717 8 1.0 1.0 ; chem  ; cg_bonded
544 7721 1 0.143 267776.0
548 557 8 1.0 1.0 ; static  ; cg_bonded
548 567 8 1.0 1.0 ; static  ; cg_bonded
548 3972 8 1.0 1.0 ; chem  ; cg_bonded
549 569 1 0.135 402500.8
550 558 1 0.136 402500.8
553 3976 1 0.143 267776.0
557 567 8 1.0 1.0 ; static  ; cg_bonded
559 568 1 0.135 402500.8
567 11088 8 1.0 1.0 ; chem  ; cg_bonded
572 11092 1 0.143 267776.0
576 585 8 1.0 1.0 ; static  ; cg_bonded
576 594 8 1.0 1.0 ; static  ; cg_bonded
576 4521 8 1.0 1.0 ; chem  ; cg_bonded
577 596 1 0.135 402500.8
578 586 1 0.136 402500.8
581 4525 1 0.143 267776.0
585 594 8 1.0 1.0 ; static  ; cg_bonded
585 10966 8 1.0 1.0 ; chem  ; cg_bonded
587 595 1 0.135 402500.8
590 10970 1 0.143 267776.0
594 6516 8 1.0 1.0 ; chem  ; cg_bonded
599 6520 1 0.143 267776.0
603 612 8 1.0 1.0 ; static  ; cg_bonded
603 622 8 1.0 1.0 ; static  ; cg_bonded
603 1105 8 1.0 1.0 ; chem  ; cg_bonded
604 624 1 0.135 402500.8
605 613 1 0.136 402500.8
608 1109 1 0.143 267776.0
612 622 8 1.0 1.0 ; static  ; cg_bonded
614 623 1 0.135 402500.8
622 1256 8 1.0 1.0 ; chem  ; cg_bonded
627 1260 1 0.143 267776.0
631 640 8 1.0 1.0 ; static  ; cg_bonded
631 649 8 1.0 1.0 ; static  ; cg_bonded
631 11421 8 1.0 1.0 ; chem  ; cg_bonded
632 651 1 0.135 402500.8
633 641 1 0.136 402500.8
636 11425 1 0.143 267776.0
640 649 8 1.0 1.0 ; static  ; cg_bonded
640 5601 8 1.0 1.0 ; chem  ; cg_bonded
642 650 1 0.135 402500.8
645 5605 1 0.143 267776.0
649 2780 8 1.0 1.0 ; chem  ; cg_bonded
654 2784 1 0.143 267776.0
658 667 8 1.0 1.0 ; static  ; cg_bonded
658 676 8 1.0 1.0 ; static  ; cg_bonded
658 4908 8 1.0 1.0 ; chem  ; cg_bonded
659 678 1 0.135 402500.8
660 668 1 0.136 402500.8
663 4912 1 0.143 267776.0
667 676 8 1.0 1.0 ; static  ; cg_bonded
667 1203 8 1.0 1.0 ; chem  ; cg_bonded
669 677 1 0.135 402500.8
672 1207 1 0.143 267776.0
676 8884 8 1.0 1.0 ; chem  ; cg_bonded
681 8888 1 0.143 267776.0
685 695 8 1.0 1.0 ; static  ; cg_bonded
685 704 8 1.0 1.0 ; static  ; cg_bonded
686 706 1 0.135 402500.8
687 696 1 0.136 402500.8
695 704 8 1.0 1.0 ; static  ; cg_bonded
695 5888 8 1.0 1.0 ; chem  ; cg_bonded
697 705 1 0.135 402500.8
700 5892 1 0.143 267776.0
704 875 8 1.0 1.0 ; chem  ; cg_bonded
709 879 1 0.143 267776.0
713 722 8 1.0 1.0 ; static  ; cg_bonded
713 730 8 1.0 1.0 ; static  ; cg_bonded
713 9061 8 1.0 1.0 ; chem  ; cg_bonded
714 732 1 0.135 402500.8
715 723 1 0.136 402500.8
718 9065 1 0.143 267776.0
722 730 8 1.0 1.0 ; static  ; cg_bonded
724 731 1 0.135 402500.8
730 6811 8 1.0 1.0 ; chem  ; cg_bonded
735 6815 1 0.143 267776.0
739 748 8 1.0 1.0 ; static  ; cg_bonded
739 758 8 1.0 1.0 ; static  ; cg_bonded
739 3040 8 1.0 1.0 ; chem  ; cg_bonded
740 760 1 0.135 402500.8
741 749 1 0.136 402500.8
744 3044 1 0.143 267776.0
748 758 8 1.0 1.0 ; static  ; cg_bonded
750 759 1 0.135 402500.8
768 777 8 1.0 1.0 ; static  ; cg_bonded
768 786 8 1.0 1.0 ; static  ; cg_bonded
768 10796 8 1.0 1.0 ; chem  ; cg_bonded
769 788 1 0.135 402500.8
770 778 1 0.136 402500.8
773 10800 1 0.143 267776.0
777 786 8 1.0 1.0 ; static  ; cg_bonded
777 3575 8 1.0 1.0 ; chem  ; cg_bonded
779 787 1 0.135 402500.8
782 3579 1 0.143 267776.0
786 6524 8 1.0 1.0 ; chem  ; cg_bonded
791 6528 1 0.143 267776.0
795 803 8 1.0 1.0 ; static  ; cg_bonded
795 812 8 1.0 1.0 ; static  ; cg_bonded
796 814 1 0.135 402500.8
797 804 1 0.136 402500.8
803 812 8 1.0 1.0 ; static  ; cg_bonded
803 9634 8 1.0 1.0 ; chem  ; cg_bonded
805 813 1 0.135 402500.8
808 9638 1 0.143 267776.0
812 6785 8 1.0 1.0 ; chem  ; cg_bonded
817 6789 1 0.143 267776.0
821 830 8 1.0 1.0 ; static  ; cg_bonded
821 839 8 1.0 1.0 ; static  ; cg_bonded
821 8132 8 1.0 1.0 ; chem  ; cg_bonded
822 841 1 0.135 402500.8
823 831 1 0.136 402500.8
826 8136 1 0.143 267776.0
830 839 8 1.0 1.0 ; static  ; cg_bonded
830 10239 8 1.0 1.0 ; chem  ; cg_bonded
832 840 1 0.135 402500.8
835 10243 1 0.143 267776.0
839 4705 8 1.0 1.0 ; chem  ; cg_bonded
844 4709 1 0.143 267776.0
848 857 8 1.0 1.0 ; static  ; cg_bonded
848 866 8 1.0 1.0 ; static  ; cg_bonded
848 9221 8 1.0 1.0 ; chem  ; cg_bonded
849 868 1 0.135 402500.8
850 858 1 0.136 402500.8
853 9225 1 0.143 267776.0
857 866 8 1.0 1.0 ; static  ; cg_bonded
857 11723 8 1.0 1.0 ; chem  ; cg_bonded
859 867 1 0.135 402500.8
862 11727 1 0.143 267776.0
866 1420 8 1.0 1.0 ; chem  ; cg_bonded
871 1424 1 0.143 267776.0
875 883 8 1.0 1.0 ; static  ; cg_bonded
875 892 8 1.0 1.0 ; static  ; cg_bonded
876 894 1 0.135 402500.8
877 884 1 0.136 402500.8
883 892 8 1.0 1.0 ; static  ; cg_bonded
883 9733 8 1.0 1.0 ; chem  ; cg_bonded
885 893 1 0.135 402500.8
888 9737 1 0.143 267776.0
902 911 8 1.0 1.0 ; static  ; cg_bonded
902 920 8 1.0 1.0 ; static  ; cg_bonded
902 9390 8 1.0 1.0 ; chem  ; cg_bonded
903 922 1 0.135 402500.8
904 912 1 0.136 402500.8
907 9394 1 0.143 267776.0
911 920 8 1.0 1.0 ; static  ; cg_bonded
911 3048 8 1.0 1.0 ; chem  ; cg_bonded
913 921 1 0.135 402500.8
916 3052 1 0.143 267776.0
920 11911 8 1.0 1.0 ; chem  ; cg_bonded
925 11915 1 0.143 267776.0
929 938 8 1.0 1.0 ; static  ; cg_bonded
929 947 8 1.0 1.0 ; static  ; cg_bonded
929 5585 8 1.0 1.0 ; chem  ; cg_bonded
930 949 1 0.135 402500.8
931 939 1 0.136 402500.8
934 5589 1 0.143 267776.0
938 947 8 1.0 1.0 ; static  ; cg_bonded
938 5593 8 1.0 1.0 ; chem  ; cg_bonded
940 948 1 0.135 402500.8
943 5597 1 0.143 267776.0
947 2360 8 1.0 1.0 ; chem  ; cg_bonded
952 2364 1 0.143 267776.0
956 965 8 1.0 1.0 ; static  ; cg_bonded
956 975 8 1.0 1.0 ; static  ; cg_bonded
956 11162 8 1.0 1.0 ; chem  ; cg_bonded
957 977 1 0.135 402500.8
958 966 1 0.136 402500.8
961 11166 1 0.143 267776.0
965 975 8 1.0 1.0 ; static  ; cg_bonded
967 976 1 0.135 402500.8
985 995 8 1.0 1.0 ; static  ; cg_bonded
985 1004 8 1.0 1.0 ; static  ; cg_bonded
986 1006 1 0.135 402500.8
987 996 1 0.136 402500.8
995 1004 8 1.0 1.0 ; static  ; cg_bonded
995 12448 8 1.0 1.0 ; chem  ; cg_bonded
997 1005 1 0.135 402500.8
1000 12452 1 0.143 267776.0
1004 12894 8 1.0 1.0 ; chem  ; cg_bonded
1009 12898 1 0.143 267776.0
1013 1022 8 1.0 1.0 ; static  ; cg_bonded
1013 1031 8 1.0 1.0 ; static  ; cg_bonded
1013 5714 8 1.0 1.0 ; chem  ; cg_bonded
1014 1033 1 0.135 402500.8
1015 1023 1 0.136 402500.8
1018 5718 1 0.143 267776.0
1022 1031 8 1.0 1.0 ; static  ; cg_bonded
1022 11267 8 1.0 1.0 ; chem  ; cg_bonded
1024 1032 1 0.135 402500.8
1027 11271 1 0.143 267776.0
1031 9849 8 1.0 1.0 ; chem  ; cg_bonded
1036 9853 1 0.143 267776.0
1040 1049 8 1.0 1.0 ; static  ; cg_bonded
1040 1058 8 1.0 1.0 ; static  ; cg_bonded
1040 4076 8 1.0 1.0 ; chem  ; cg_bonded
1041 1060 1 0.135 402500.8
1042 1050 1 0.136 402500.8
1045 4080 1 0.143 267776.0
1049 1058 8 1.0 1.0 ; static  ; cg_bonded
1049 5948 8 1.0 1.0 ; chem  ; cg_bonded
1051 1059 1 0.135 402500.8
1054 5952 1 0.143 267776.0
1058 10715 8 1.0 1.0 ; chem  ; cg_bonded
1063 10719 1 0.143 267776.0
1067 1077 8 1.0 1.0 ; static  ; cg_bonded
1067 1086 8 1.0 1.0 ; static  ; cg_bonded
1068 1088 1 0.135 402500.8
1069 1078 1 0.136 402500.8
1077 1086 8 1.0 1.0 ; static  ; cg_bonded
1077 3145 8 1.0 1.0 ; chem  ; cg_bonded
1079 1087 1 0.135 402500.8
1082 3149 1 0.143 267776.0
1096 1105 8 1.0 1.0 ; static  ; cg_bonded
1096 1113 8 1.0 1.0 ; static  ; cg_bonded
1096 3634 8 1.0 1.0 ; chem  ; cg_bonded
1097 1115 1 0.135 402500.8
1098 1106 1 0.136 402500.8
1101 3638 1 0.143 267776.0
1105 1113 8 1.0 1.0 ; static  ; cg_bonded
1107 1114 1 0.135 402500.8
1113 5175 8 1.0 1.0 ; chem  ; cg_bonded
1118 5179 1 0.143 267776.0
1122 1131 8 1.0 1.0 ; static  ; cg_bonded
1122 1140 8 1.0 1.0 ; static  ; cg_bonded
1122 7500 8 1.0 1.0 ; chem  ; cg_bonded
1123 1142 1 0.135 402500.8
1124 1132 1 0.136 402500.8
1127 7504 1 0.143 267776.0
1131 1140 8 1.0 1.0 ; static  ; cg_bonded
1131 8630 8 1.0 1.0 ; chem  ; cg_bonded
1133 1141 1 0.135 402500.8
1136 8634 1 0.143 267776.0
1140 9832 8 1.0 1.0 ; chem  ; cg_bonded
1145 9836 1 0.143 267776.0
1149 1158 8 1.0 1.0 ; static  ; cg_bonded
1149 1167 8 1.0 1.0 ; static  ; cg_bonded
1149 3015 8 1.0 1.0 ; chem  ; cg_bonded
1150 1169 1 0.135 402500.8
1151 1159 1 0.136 402500.8
1154 3019 1 0.143 267776.0
1158 1167 8 1.0 1.0 ; static  ; cg_bonded
1158 8562 8 1.0 1.0 ; chem  ; cg_bonded
1160 1168 1 0.135 402500.8
1163 8566 1 0.143 267776.0
1167 7743 8 1.0 1.0 ; chem  ; cg_bonded
1172 7747 1 0.143 267776.0
1176 1185 8 1.0 1.0 ; static  ; cg_bonded
1176 1194 8 1.0 1.0 ; static  ; cg_bonded
1176 1920 8 1.0 1.0 ; chem  ; cg_bonded
1177 1196 1 0.135 402500.8
1178 1186 1 0.136 402500.8
1181 1924 1 0.143 267776.0
1185 1194 8 1.0 1.0 ; static  ; cg_bonded
1185 5931 8 1.0 1.0 ; chem  ; cg_bonded
1187 1195 1 0.135 402500.8
1190 5935 1 0.143 267776.0
1194 12792 8 1.0 1.0 ; chem  ; cg_bonded
1199 12796 1 0.143 267776.0
1203 1211 8 1.0 1.0 ; static  ; cg_bonded
1203 1220 8 1.0 1.0 ; static  ; cg_bonded
1204 1222 1 0.135 402500.8
1205 1212 1 0.136 402500.8
1211 1220 8 1.0 1.0 ; static  ; cg_bonded
1211 5229 8 1.0 1.0 ; chem  ; cg_bonded
1213 1221 1 0.135 402500.8
1216 5233 1 0.143 267776.0
1220 7053 8 1.0 1.0 ; chem  ; cg_bonded
1225 7057 1 0.143 267776.0
1229 1238 8 1.0 1.0 ; static  ; cg_bonded
1229 1247 8 1.0 1.0 ; static  ; cg_bonded
1229 9180 8 1.0 1.0 ; chem  ; cg_bonded
1230 1249 1 0.135 402500.8
1231 1239 1 0.136 402500.8
1234 9184 1 0.143 267776.0
1238 1247 8 1.0 1.0 ; static  ; cg_bonded
1238 8670 8 1.0 1.0 ; chem  ; cg_bonded
1240 1248 1 0.135 402500.8
1243 8674 1 0.143 267776.0
1247 2529 8 1.0 1.0 ; chem  ; cg_bonded
1252 2533 1 0.143 267776.0
1256 1264 8 1.0 1.0 ; static  ; cg_bonded
1256 1273 8 1.0 1.0 ; static  ; cg_bonded
1257 1275 1 0.135 402500.8
1258 1265 1 0.136 402500.8
1264 1273 8 1.0 1.0 ; static  ; cg_bonded
1264 7473 8 1.0 1.0 ; chem  ; cg_bonded
1266 1274 1 0.135 402500.8
1269 7477 1 0.143 267776.0
1283 1292 8 1.0 1.0 ; static  ; cg_bonded
1283 1301 8 1.0 1.0 ; static  ; cg_bonded
1283 3313 8 1.0 1.0 ; chem  ; cg_bonded
1284 1303 1 0.135 402500.8
1285 1293 1 0.136 402500.8
1288 3317 1 0.143 267776.0
1292 1301 8 1.0 1.0 ; static  ; cg_bonded
1292 1554 8 1.0 1.0 ; chem  ; cg_bonded
1294 1302 1 0.135 402500.8
1297 1558 1 0.143 267776.0
1301 6366 8 1.0 1.0 ; chem  ; cg_bonded
1306 6370 1 0.143 267776.0
1310 1319 8 1.0 1.0 ; static  ; cg_bonded
1310 1328 8 1.0 1.0 ; static  ; cg_bonded
1310 11372 8 1.0 1.0 ; chem  ; cg_bonded
1311 1330 1 0.135 402500.8
1312 1320 1 0.136 402500.8
1315 11376 1 0.143 267776.0
1319 1328 8 1.0 1.0 ; static  ; cg_bonded
1319 9602 8 1.0 1.0 ; chem  ; cg_bonded
1321 1329 1 0.135 402500.8
1324 9606 1 0.143 267776.0
1328 5706 8 1.0 1.0 ; chem  ; cg_bonded
1333 5710 1 0.143 267776.0
1337 1346 8 1.0 1.0 ; static  ; cg_bonded
1337 1355 8 1.0 1.0 ; static  ; cg_bonded
1337 9950 8 1.0 1.0 ; chem  ; cg_bonded
1338 1357 1 0.135 402500.8
1339 1347 1 0.136 402500.8
1342 9954 1 0.143 267776.0
1346 1355 8 1.0 1.0 ; static  ; cg_bonded
1346 3794 8 1.0 1.0 ; chem  ; cg_bonded
1348 1356 1 0.135 402500.8
1351 3798 1 0.143 267776.0
1365 1374 8 1.0 1.0 ; static  ; cg_bonded
1365 1383 8 1.0 1.0 ; static  ; cg_bonded
1365 2467 8 1.0 1.0 ; chem  ; cg_bonded
1366 1385 1 0.135 402500.8
1367 1375 1 0.136 402500.8
1370 2471 1 0.143 267776.0
1374 1383 8 1.0 1.0 ; static  ; cg_bonded
1374 2875 8 1.0 1.0 ; chem  ; cg_bonded
1376 1384 1 0.135 402500.8
1379 2879 1 0.143 267776.0
1383 4275 8 1.0 1.0 ; chem  ; cg_bonded
1388 4279 1 0.143 267776.0
1392 1401 8 1.0 1.0 ; static  ; cg_bonded
1392 1411 8 1.0 1.0 ; static  ; cg_bonded
1392 12800 8 1.0 1.0 ; chem  ; cg_bonded
1393 1413 1 0.135 402500.8
1394 1402 1 0.136 402500.8
1397 12804 1 0.143 267776.0
1401 1411 8 1.0 1.0 ; static  ; cg_bonded
1403 1412 1 0.135 402500.8
1411 2824 8 1.0 1.0 ; chem  ; cg_bonded
1416 2828 1 0.143 267776.0
1420 1428 8 1.0 1.0 ; static  ; cg_bonded
1420 1437 8 1.0 1.0 ; static  ; cg_bonded
1421 1439 1 0.135 402500.8
1422 1429 1 0.136 402500.8
1428 1437 8 1.0 1.0 ; static  ; cg_bonded
1428 8350 8 1.0 1.0 ; chem  ; cg_bonded
1430 1438 1 0.135 402500.8
1433 8354 1 0.143 267776.0
1437 4164 8 1.0 1.0 ; chem  ; cg_bonded
1442 4168 1 0.143 267776.0
1446 1455 8 1.0 1.0 ; static  ; cg_bonded
1446 1464 8 1.0 1.0 ; static  ; cg_bonded
1446 8046 8 1.0 1.0 ; chem  ; cg_bonded
1447 1466 1 0.135 402500.8
1448 1456 1 0.136 402500.8
1451 8050 1 0.143 267776.0
1455 1464 8 1.0 1.0 ; static  ; cg_bonded
1455 5403 8 1.0 1.0 ; chem  ; cg_bonded
1457 1465 1 0.135 402500.8
1460 5407 1 0.143 267776.0
1464 3828 8 1.0 1.0 ; chem  ; cg_bonded
1469 3832 1 0.143 267776.0
1473 1482 8 1.0 1.0 ; static  ; cg_bonded
1473 1491 8 1.0 1.0 ; static  ; cg_bonded
1473 10923 8 1.0 1.0 ; chem  ; cg_bonded
1474 1493 1 0.135 402500.8
1475 1483 1 0.136 402500.8
1478 10927 1 0.143 267776.0
1482 1491 8 1.0 1.0 ; static  ; cg_bonded
1482 8292 8 1.0 1.0 ; chem  ; cg_bonded
1484 1492 1 0.135 402500.8
1487 8296 1 0.143 267776.0
1491 3600 8 1.0 1.0 ; chem  ; cg_bonded
1496 3604 1 0.143 267776.0
1500 1509 8 1.0 1.0 ; static  ; cg_bonded
1500 1518 8 1.0 1.0 ; static  ; cg_bonded
1500 10163 8 1.0 1.0 ; chem  ; cg_bonded
1501 1520 1 0.135 402500.8
1502 1510 1 0.136 402500.8
1505 10167 1 0.143 267776.0
1509 1518 8 1.0 1.0 ; static  ; cg_bonded
1509 11755 8 1.0 1.0 ; chem  ; cg_bonded
1511 1519 1 0.135 402500.8
1514 11759 1 0.143 267776.0
1518 3909 8 1.0 1.0 ; chem  ; cg_bonded
1523 3913 1 0.143 267776.0
1527 1536 8 1.0 1.0 ; static  ; cg_bonded
1527 1545 8 1.0 1.0 ; static  ; cg_bonded
1527 3592 8 1.0 1.0 ; chem  ; cg_bonded
1528 1547 1 0.135 402500.8
1529 1537 1 0.136 402500.8
1532 3596 1 0.143 267776.0
1536 1545 8 1.0 1.0 ; static  ; cg_bonded
1536 9262 8 1.0 1.0 ; chem  ; cg_bonded
1538 1546 1 0.135 402500.8
1541 9266 1 0.143 267776.0
1545 8165 8 1.0 1.0 ; chem  ; cg_bonded
1550 8169 1 0.143 267776.0
1554 1562 8 1.0 1.0 ; static  ; cg_bonded
1554 1571 8 1.0 1.0 ; static  ; cg_bonded
1555 1573 1 0.135 402500.8
1556 1563 1 0.136 402500.8
1562 1571 8 1.0 1.0 ; static  ; cg_bonded
1562 1903 8 1.0 1.0 ; chem  ; cg_bonded
1564 1572 1 0.135 402500.8
1567 1907 1 0.143 267776.0
1571 10288 8 1.0 1.0 ; chem  ; cg_bonded
1576 10292 1 0.143 267776.0
1580 1589 8 1.0 1.0 ; static  ; cg_bonded
1580 1598 8 1.0 1.0 ; static  ; cg_bonded
1580 3749 8 1.0 1.0 ; chem  ; cg_bonded
1581 1600 1 0.135 402500.8
1582 1590 1 0.136 402500.8
1585 3753 1 0.143 267776.0
1589 1598 8 1.0 1.0 ; static  ; cg_bonded
1589 10016 8 1.0 1.0 ; chem  ; cg_bonded
1591 1599 1 0.135 402500.8
1594 10020 1 0.143 267776.0
1598 1671 8 1.0 1.0 ; chem  ; cg_bonded
1603 1675 1 0.143 267776.0
1607 1616 8 1.0 1.0 ; static  ; cg_bonded
1607 1625 8 1.0 1.0 ; static  ; cg_bonded
1607 7199 8 1.0 1.0 ; chem  ; cg_bonded
1608 1627 1 0.135 402500.8
1609 1617 1 0.136 402500.8
1612 7203 1 0.143 267776.0
1616 1625 8 1.0 1.0 ; static  ; cg_bonded
1616 12886 8 1.0 1.0 ; chem  ; cg_bonded
1618 1626 1 0.135 402500.8
1621 12890 1 0.143 267776.0
1625 10362 8 1.0 1.0 ; chem  ; cg_bonded
1630 10366 1 0.143 267776.0
1634 1643 8 1.0 1.0 ; static  ; cg_bonded
1634 1653 8 1.0 1.0 ; static  ; cg_bonded
1634 12816 8 1.0 1.0 ; chem  ; cg_bonded
1635 1655 1 0.135 402500.8
1636 1644 1 0.136 402500.8
1639 12820 1 0.143 267776.0
1643 1653 8 1.0 1.0 ; static  ; cg_bonded
1645 1654 1 0.135 402500.8
1653 7069 8 1.0 1.0 ; chem  ; cg_bonded
1658 7073 1 0.143 267776.0
1662 1671 8 1.0 1.0 ; static  ; cg_bonded
1662 1679 8 1.0 1.0 ; static  ; cg_bonded
1662 10639 8 1.0 1.0 ; chem  ; cg_bonded
1663 1681 1 0.135 402500.8
1664 1672 1 0.136 402500.8
1667 10643 1 0.143 267776.0
1671 1679 8 1.0 1.0 ; static  ; cg_bonded
1673 1680 1 0.135 402500.8
1679 9618 8 1.0 1.0 ; chem  ; cg_bonded
1684 9622 1 0.143 267776.0
1688 1697 8 1.0 1.0 ; static  ; cg_bonded
1688 1705 8 1.0 1.0 ; static  ; cg_bonded
1688 2700 8 1.0 1.0 ; chem  ; cg_bonded
1689 1707 1 0.135 402500.8
1690 1698 1 0.136 402500.8
1693 2704 1 0.143 267776.0
1697 1705 8 1.0 1.0 ; static  ; cg_bonded
1699 1706 1 0.135 402500.8
1713 1722 8 1.0 1.0 ; static  ; cg_bonded
1713 1731 8 1.0 1.0 ; static  ; cg_bonded
1713 2081 8 1.0 1.0 ; chem  ; cg_bonded
1714 1733 1 0.135 402500.8
1715 1723 1 0.136 402500.8
1718 2085 1 0.143 267776.0
1722 1731 8 1.0 1.0 ; static  ; cg_bonded
1722 9077 8 1.0 1.0 ; chem  ; cg_bonded
1724 1732 1 0.135 402500.8
1727 9081 1 0.143 267776.0
1731 9692 8 1.0 1.0 ; chem  ; cg_bonded
1736 9696 1 0.143 267776.0
1740 1749 8 1.0 1.0 ; static  ; cg_bonded
1740 1758 8 1.0 1.0 ; static  ; cg_bonded
1740 11638 8 1.0 1.0 ; chem  ; cg_bonded
1741 1760 1 0.135 402500.8
1742 1750 1 0.136 402500.8
1745 11642 1 0.143 267776.0
1749 1758 8 1.0 1.0 ; static  ; cg_bonded
1749 6583 8 1.0 1.0 ; chem  ; cg_bonded
1751 1759 1 0.135 402500.8
1754 6587 1 0.143 267776.0
1768 1777 8 1.0 1.0 ; static  ; cg_bonded
1768 1786 8 1.0 1.0 ; static  ; cg_bonded
1768 4572 8 1.0 1.0 ; chem  ; cg_bonded
1769 1788 1 0.135 402500.8
1770 1778 1 0.136 402500.8
1773 4576 1 0.143 267776.0
1777 1786 8 1.0 1.0 ; static  ; cg_bonded
1777 11048 8 1.0 1.0 ; chem  ; cg_bonded
1779 1787 1 0.135 402500.8
1782 11052 1 0.143 267776.0
1786 5149 8 1.0 1.0 ; chem  ; cg_bonded
1791 5153 1 0.143 267776.0
1795 1804 8 1.0 1.0 ; static  ; cg_bonded
1795 1813 8 1.0 1.0 ; static  ; cg_bonded
1795 11779 8 1.0 1.0 ; chem  ; cg_bonded
1796 1815 1 0.135 402500.8
1797 1805 1 0.136 402500.8
1800 11783 1 0.143 267776.0
1804 1813 8 1.0 1.0 ; static  ; cg_bonded
1804 12167 8 1.0 1.0 ; chem  ; cg_bonded
1806 1814 1 0.135 402500.8
1809 12171 1 0.143 267776.0
1813 1850 8 1.0 1.0 ; chem  ; cg_bonded
1818 1854 1 0.143 267776.0
1822 1831 8 1.0 1.0 ; static  ; cg_bonded
1822 1841 8 1.0 1.0 ; static  ; cg_bonded
1822 9684 8 1.0 1.0 ; chem  ; cg_bonded
1823 1843 1 0.135 402500.8
1824 1832 1 0.136 402500.8
1827 9688 1 0.143 267776.0
1831 1841 8 1.0 1.0 ; static  ; cg_bonded
1833 1842 1 0.135 402500.8
1841 12382 8 1.0 1.0 ; chem  ; cg_bonded
1846 12386 1 0.143 267776.0
1850 1858 8 1.0 1.0 ; static  ; cg_bonded
1850 1867 8 1.0 1.0 ; static  ; cg_bonded
1851 1869 1 0.135 402500.8
1852 1859 1 0.136 402500.8
1858 1867 8 1.0 1.0 ; static  ; cg_bonded
1858 5795 8 1.0 1.0 ; chem  ; cg_bonded
1860 1868 1 0.135 402500.8
1863 5799 1 0.143 267776.0
1867 12302 8 1.0 1.0 ; chem  ; cg_bonded
1872 12306 1 0.143 267776.0
1876 1885 8 1.0 1.0 ; static  ; cg_bonded
1876 1894 8 1.0 1.0 ; static  ; cg_bonded
1876 2106 8 1.0 1.0 ; chem  ; cg_bonded
1877 1896 1 0.135 402500.8
1878 1886 1 0.136 402500.8
1881 2110 1 0.143 267776.0
1885 1894 8 1.0 1.0 ; static  ; cg_bonded
1885 12270 8 1.0 1.0 ; chem  ; cg_bonded
1887 1895 1 0.135 402500.8
1890 12274 1 0.143 267776.0
1894 12135 8 1.0 1.0 ; chem  ; cg_bonded
1899 12139 1 0.143 267776.0
1903 1911 8 1.0 1.0 ; static  ; cg_bonded
1903 1920 8 1.0 1.0 ; static  ; cg_bonded
1904 1922 1 0.135 402500.8
1905 1912 1 0.136 402500.8
1911 1920 8 1.0 1.0 ; static  ; cg_bonded
1911 4354 8 1.0 1.0 ; chem  ; cg_bonded
1913 1921 1 0.135 402500.8
1916 4358 1 0.143 267776.0
1928 1937 8 1.0 1.0 ; static  ; cg_bonded
1928 1946 8 1.0 1.0 ; static  ; cg_bonded
1928 8519 8 1.0 1.0 ; chem  ; cg_bonded
1929 1948 1 0.135 402500.8
1930 1938 1 0.136 402500.8
1933 8523 1 0.143 267776.0
1937 1946 8 1.0 1.0 ; static  ; cg_bonded
1937 4830 8 1.0 1.0 ; chem  ; cg_bonded
1939 1947 1 0.135 402500.8
1942 4834 1 0.143 267776.0
1946 2850 8 1.0 1.0 ; chem  ; cg_bonded
1951 2854 1 0.143 267776.0
1955 1964 8 1.0 1.0 ; static  ; cg_bonded
1955 1973 8 1.0 1.0 ; static  ; cg_bonded
1955 5419 8 1.0 1.0 ; chem  ; cg_bonded
1956 1975 1 0.135 402500.8
1957 1965 1 0.136 402500.8
1960 5423 1 0.143 267776.0
1964 1973 8 1.0 1.0 ; static  ; cg_bonded
1964 9020 8 1.0 1.0 ; chem  ; cg_bonded
1966 1974 1 0.135 402500.8
1969 9024 1 0.143 267776.0
1973 9414 8 1.0 1.0 ; chem  ; cg_bonded
1978 9418 1 0.143 267776.0
1982 1991 8 1.0 1.0 ; static  ; cg_bonded
1982 2000 8 1.0 1.0 ; static  ; cg_bonded
1982 3980 8 1.0 1.0 ; chem  ; cg_bonded
1983 2002 1 0.135 402500.8
1984 1992 1 0.136 402500.8
1987 3984 1 0.143 267776.0
1991 2000 8 1.0 1.0 ; static  ; cg_bonded
1991 7259 8 1.0 1.0 ; chem  ; cg_bonded
1993 2001 1 0.135 402500.8
1996 7263 1 0.143 267776.0
2000 2900 8 1.0 1.0 ; chem  ; cg_bonded
2005 2904 1 0.143 267776.0
2009 2018 8 1.0 1.0 ; static  ; cg_bonded
2009 2027 8 1.0 1.0 ; static  ; cg_bonded
2009 10413 8 1.0 1.0 ; chem  ; cg_bonded
2010 2029 1 0.135 402500.8
2011 2019 1 0.136 402500.8
2014 10417 1 0.143 267776.0
2018 2027 8 1.0 1.0 ; static  ; cg_bonded
2018 7657 8 1.0 1.0 ; chem  ; cg_bonded
2020 2028 1 0.135 402500.8
2023 7661 1 0.143 267776.0
2027 6026 8 1.0 1.0 ; chem  ; cg_bonded
2032 6030 1 0.143 267776.0
2036 2045 8 1.0 1.0 ; static  ; cg_bonded
2036 2054 8 1.0 1.0 ; static  ; cg_bonded
2036 7674 8 1.0 1.0 ; chem  ; cg_bonded
2037 2056 1 0.135 402500.8
2038 2046 1 0.136 402500.8
2041 7678 1 0.143 267776.0
2045 2054 8 1.0 1.0 ; static  ; cg_bonded
2045 3863 8 1.0 1.0 ; chem  ; cg_bonded
2047 2055 1 0.135 402500.8
2050 3867 1 0.143 267776.0
2054 12095 8 1.0 1.0 ; chem  ; cg_bonded
2059 12099 1 0.143 267776.0
2063 2072 8 1.0 1.0 ; static  ; cg_bonded
2063 2081 8 1.0 1.0 ; static  ; cg_bonded
2063 10139 8 1.0 1.0 ; chem  ; cg_bonded
2064 2083 1 0.135 402500.8
2065 2073 1 0.136 402500.8
2068 10143 1 0.143 267776.0
2072 2081 8 1.0 1.0 ; static  ; cg_bonded
2072 6777 8 1.0 1.0 ; chem  ; cg_bonded
2074 2082 1 0.135 402500.8
2077 6781 1 0.143 267776.0
2089 2098 8 1.0 1.0 ; static  ; cg_bonded
2089 2106 8 1.0 1.0 ; static  ; cg_bonded
2089 5342 8 1.0 1.0 ; chem  ; cg_bonded
2090 2108 1 0.135 402500.8
2091 2099 1 0.136 402500.8
2094 5346 1 0.143 267776.0
2098 2106 8 1.0 1.0 ; static  ; cg_bonded
2100 2107 1 0.135 402500.8
2114 2123 8 1.0 1.0 ; static  ; cg_bonded
2114 2132 8 1.0 1.0 ; static  ; cg_bonded
2114 9471 8 1.0 1.0 ; chem  ; cg_bonded
2115 2134 1 0.135 402500.8
2116 2124 1 0.136 402500.8
2119 9475 1 0.143 267776.0
2123 2132 8 1.0 1.0 ; static  ; cg_bonded
2123 10321 8 1.0 1.0 ; chem  ; cg_bonded
2125 2133 1 0.135 402500.8
2128 10325 1 0.143 267776.0
2132 8206 8 1.0 1.0 ; chem  ; cg_bonded
2137 8210 1 0.143 267776.0
2141 2150 8 1.0 1.0 ; static  ; cg_bonded
2141 2159 8 1.0 1.0 ; static  ; cg_bonded
2141 6673 8 1.0 1.0 ; chem  ; cg_bonded
2142 2161 1 0.135 402500.8
2143 2151 1 0.136 402500.8
2146 6677 1 0.143 267776.0
2150 2159 8 1.0 1.0 ; static  ; cg_bonded
2150 10024 8 1.0 1.0 ; chem  ; cg_bonded
2152 2160 1 0.135 402500.8
2155 10028 1 0.143 267776.0
2159 4916 8 1.0 1.0 ; chem  ; cg_bonded
2164 4920 1 0.143 267776.0
2168 2177 8 1.0 1.0 ; static  ; cg_bonded
2168 2187 8 1.0 1.0 ; static  ; cg_bonded
2168 10998 8 1.0 1.0 ; chem  ; cg_bonded
2169 2189 1 0.135 402500.8
2170 2178 1 0.136 402500.8
2173 11002 1 0.143 267776.0
2177 2187 8 1.0 1.0 ; static  ; cg_bonded
2179 2188 1 0.135 402500.8
2187 3651 8 1.0 1.0 ; chem  ; cg_bonded
2192 3655 1 0.143 267776.0
2196 2205 8 1.0 1.0 ; static  ; cg_bonded
2196 2214 8 1.0 1.0 ; static  ; cg_bonded
2196 12111 8 1.0 1.0 ; chem  ; cg_bonded
2197 2216 1 0.135 402500.8
2198 2206 1 0.136 402500.8
2201 12115 1 0.143 267776.0
2205 2214 8 1.0 1.0 ; static  ; cg_bonded
2205 12952 8 1.0 1.0 ; chem  ; cg_bonded
2207 2215 1 0.135 402500.8
2210 12956 1 0.143 267776.0
2224 2233 8 1.0 1.0 ; static  ; cg_bonded
2224 2242 8 1.0 1.0 ; static  ; cg_bonded
2224 9892 8 1.0 1.0 ; chem  ; cg_bonded
2225 2244 1 0.135 402500.8
2226 2234 1 0.136 402500.8
2229 9896 1 0.143 267776.0
2233 2242 8 1.0 1.0 ; static  ; cg_bonded
2233 5489 8 1.0 1.0 ; chem  ; cg_bonded
2235 2243 1 0.135 402500.8
2238 5493 1 0.143 267776.0
2242 12212 8 1.0 1.0 ; chem  ; cg_bonded
2247 12216 1 0.143 267776.0
2251 2260 8 1.0 1.0 ; static  ; cg_bonded
2251 2269 8 1.0 1.0 ; static  ; cg_bonded
2251 10155 8 1.0 1.0 ; chem  ; cg_bonded
2252 2271 1 0.135 402500.8
2253 2261 1 0.136 402500.8
2256 10159 1 0.143 267776.0
2260 2269 8 1.0 1.0 ; static  ; cg_bonded
2260 8087 8 1.0 1.0 ; chem  ; cg_bonded
2262 2270 1 0.135 402500.8
2265 8091 1 0.143 267776.0
2269 10899 8 1.0 1.0 ; chem  ; cg_bonded
2274 10903 1 0.143 267776.0
2278 2287 8 1.0 1.0 ; static  ; cg_bonded
2278 2296 8 1.0 1.0 ; static  ; cg_bonded
2278 7146 8 1.0 1.0 ; chem  ; cg_bonded
2279 2298 1 0.135 402500.8
2280 2288 1 0.136 402500.8
2283 7150 1 0.143 267776.0
2287 2296 8 1.0 1.0 ; static  ; cg_bonded
2287 12566 8 1.0 1.0 ; chem  ; cg_bonded
2289 2297 1 0.135 402500.8
2292 12570 1 0.143 267776.0
2296 10264 8 1.0 1.0 ; chem  ; cg_bonded
2301 10268 1 0.143 267776.0
2305 2314 8 1.0 1.0 ; static  ; cg_bonded
2305 2323 8 1.0 1.0 ; static  ; cg_bonded
2305 10280 8 1.0 1.0 ; chem  ; cg_bonded
2306 2325 1 0.135 402500.8
2307 2315 1 0.136 402500.8
2310 10284 1 0.143 267776.0
2314 2323 8 1.0 1.0 ; static  ; cg_bonded
2314 8453 8 1.0 1.0 ; chem  ; cg_bonded
2316 2324 1 0.135 402500.8
2319 8457 1 0.143 267776.0
2323 9110 8 1.0 1.0 ; chem  ; cg_bonded
2328 9114 1 0.143 267776.0
2332 2341 8 1.0 1.0 ; static  ; cg_bonded
2332 2350 8 1.0 1.0 ; static  ; cg_bonded
2332 9069 8 1.0 1.0 ; chem  ; cg_bonded
2333 2352 1 0.135 402500.8
2334 2342 1 0.136 402500.8
2337 9073 1 0.143 267776.0
2341 2350 8 1.0 1.0 ; static  ; cg_bonded
2341 11216 8 1.0 1.0 ; chem  ; cg_bonded
2343 2351 1 0.135 402500.8
2346 11220 1 0.143 267776.0
2360 2368 8 1.0 1.0 ; static  ; cg_bonded
2360 2377 8 1.0 1.0 ; static  ; cg_bonded
2361 2379 1 0.135 402500.8
2362 2369 1 0.136 402500.8
2368 2377 8 1.0 1.0 ; static  ; cg_bonded
2368 10464 8 1.0 1.0 ; chem  ; cg_bonded
2370 2378 1 0.135 402500.8
2373 10468 1 0.143 267776.0
2377 12366 8 1.0 1.0 ; chem  ; cg_bonded
2382 12370 1 0.143 267776.0
2386 2395 8 1.0 1.0 ; static  ; cg_bonded
2386 2404 8 1.0 1.0 ; static  ; cg_bonded
2386 3023 8 1.0 1.0 ; chem  ; cg_bonded
2387 2406 1 0.135 402500.8
2388 2396 1 0.136 402500.8
2391 3027 1 0.143 267776.0
2395 2404 8 1.0 1.0 ; static  ; cg_bonded
2395 6616 8 1.0 1.0 ; chem  ; cg_bonded
2397 2405 1 0.135 402500.8
2400 6620 1 0.143 267776.0
2404 10788 8 1.0 1.0 ; chem  ; cg_bonded
2409 10792 1 0.143 267776.0
2413 2422 8 1.0 1.0 ; static  ; cg_bonded
2413 2430 8 1.0 1.0 ; static  ; cg_bonded
2413 3007 8 1.0 1.0 ; chem  ; cg_bonded
2414 2432 1 0.135 402500.8
2415 2423 1 0.136 402500.8
2418 3011 1 0.143 267776.0
2422 2430 8 1.0 1.0 ; static  ; cg_bonded
2424 2431 1 0.135 402500.8
2430 8250 8 1.0 1.0 ; chem  ; cg_bonded
2435 8254 1 0.143 267776.0
2439 2449 8 1.0 1.0 ; static  ; cg_bonded
2439 2458 8 1.0 1.0 ; static  ; cg_bonded
2440 2460 1 0.135 402500.8
2441 2450 1 0.136 402500.8
2449 2458 8 1.0 1.0 ; static  ; cg_bonded
2449 12278 8 1.0 1.0 ; chem  ; cg_bonded
2451 2459 1 0.135 402500.8
2454 12282 1 0.143 267776.0
2458 3705 8 1.0 1.0 ; chem  ; cg_bonded
2463 3709 1 0.143 267776.0
2467 2475 8 1.0 1.0 ; static  ; cg_bonded
2467 2484 8 1.0 1.0 ; static  ; cg_bonded
2468 2486 1 0.135 402500.8
2469 2476 1 0.136 402500.8
2475 2484 8 1.0 1.0 ; static  ; cg_bonded
2475 2883 8 1.0 1.0 ; chem  ; cg_bonded
2477 2485 1 0.135 402500.8
2480 2887 1 0.143 267776.0
2484 5507 8 1.0 1.0 ; chem  ; cg_bonded
2489 5511 1 0.143 267776.0
2493 2502 8 1.0 1.0 ; static  ; cg_bonded
2493 2511 8 1.0 1.0 ; static  ; cg_bonded
2493 4370 8 1.0 1.0 ; chem  ; cg_bonded
2494 2513 1 0.135 402500.8
2495 2503 1 0.136 402500.8
2498 4374 1 0.143 267776.0
2502 2511 8 1.0 1.0 ; static  ; cg_bonded
2502 2867 8 1.0 1.0 ; chem  ; cg_bonded
2504 2512 1 0.135 402500.8
2507 2871 1 0.143 267776.0
2511 10296 8 1.0 1.0 ; chem  ; cg_bonded
2516 10300 1 0.143 267776.0
2520 2529 8 1.0 1.0 ; static  ; cg_bonded
2520 2537 8 1.0 1.0 ; static  ; cg_bonded
2520 6905 8 1.0 1.0 ; chem  ; cg_bonded
2521 2539 1 0.135 402500.8
2522 2530 1 0.136 402500.8
2525 6909 1 0.143 267776.0
2529 2537 8 1.0 1.0 ; static  ; cg_bonded
2531 2538 1 0.135 402500.8
2537 9188 8 1.0 1.0 ; chem  ; cg_bonded
2542 9192 1 0.143 267776.0
2546 2555 8 1.0 1.0 ; static  ; cg_bonded
2546 2564 8 1.0 1.0 ; static  ; cg_bonded
2546 2726 8 1.0 1.0 ; chem  ; cg_bonded
2547 2566 1 0.135 402500.8
2548 2556 1 0.136 402500.8
2551 2730 1 0.143 267776.0
2555 2564 8 1.0 1.0 ; static  ; cg_bonded
2555 11944 8 1.0 1.0 ; chem  ; cg_bonded
2557 2565 1 0.135 402500.8
2560 11948 1 0.143 267776.0
2564 11763 8 1.0 1.0 ; chem  ; cg_bonded
2569 11767 1 0.143 267776.0
2573 2583 8 1.0 1.0 ; static  ; cg_bonded
2573 2593 8 1.0 1.0 ; static  ; cg_bonded
2574 2595 1 0.135 402500.8
2575 2584 1 0.136 402500.8
2583 2593 8 1.0 1.0 ; static  ; cg_bonded
2585 2594 1 0.135 402500.8
2593 6034 8 1.0 1.0 ; chem  ; cg_bonded
2598 6038 1 0.143 267776.0
2602 2611 8 1.0 1.0 ; static  ; cg_bonded
2602 2620 8 1.0 1.0 ; static  ; cg_bonded
2602 2629 8 1.0 1.0 ; chem  ; cg_bonded
2603 2622 1 0.135 402500.8
2604 2612 1 0.136 402500.8
2607 2633 1 0.143 267776.0
2611 2620 8 1.0 1.0 ; static  ; cg_bonded
2611 4042 8 1.0 1.0 ; chem  ; cg_bonded
2613 2621 1 0.135 402500.8
2616 4046 1 0.143 267776.0
2620 9270 8 1.0 1.0 ; chem  ; cg_bonded
2625 9274 1 0.143 267776.0
2629 2637 8 1.0 1.0 ; static  ; cg_bonded
2629 2646 8 1.0 1.0 ; static  ; cg_bonded
2630 2648 1 0.135 402500.8
2631 2638 1 0.136 402500.8
2637 2646 8 1.0 1.0 ; static  ; cg_bonded
2637 12398 8 1.0 1.0 ; chem  ; cg_bonded
2639 2647 1 0.135 402500.8
2642 12402 1 0.143 267776.0
2646 11936 8 1.0 1.0 ; chem  ; cg_bonded
2651 11940 1 0.143 267776.0
2655 2664 8 1.0 1.0 ; static  ; cg_bonded
2655 2673 8 1.0 1.0 ; static  ; cg_bonded
2655 6018 8 1.0 1.0 ; chem  ; cg_bonded
2656 2675 1 0.135 402500.8
2657 2665 1 0.136 402500.8
2660 6022 1 0.143 267776.0
2664 2673 8 1.0 1.0 ; static  ; cg_bonded
2664 8427 8 1.0 1.0 ; chem  ; cg_bonded
2666 2674 1 0.135 402500.8
2669 8431 1 0.143 267776.0
2683 2692 8 1.0 1.0 ; static  ; cg_bonded
2683 2700 8 1.0 1.0 ; static  ; cg_bonded
2683 12472 8 1.0 1.0 ; chem  ; cg_bonded
2684 2702 1 0.135 402500.8
2685 2693 1 0.136 402500.8
2688 12476 1 0.143 267776.0
2692 2700 8 1.0 1.0 ; static  ; cg_bonded
2694 2701 1 0.135 402500.8
2708 2717 8 1.0 1.0 ; static  ; cg_bonded
2708 2726 8 1.0 1.0 ; static  ; cg_bonded
2708 10272 8 1.0 1.0 ; chem  ; cg_bonded
2709 2728 1 0.135 402500.8
2710 2718 1 0.136 402500.8
2713 10276 1 0.143 267776.0
2717 2726 8 1.0 1.0 ; static  ; cg_bonded
2717 5896 8 1.0 1.0 ; chem  ; cg_bonded
2719 2727 1 0.135 402500.8
2722 5900 1 0.143 267776.0
2734 2743 8 1.0 1.0 ; static  ; cg_bonded
2734 2752 8 1.0 1.0 ; static  ; cg_bonded
2734 4538 8 1.0 1.0 ; chem  ; cg_bonded
2735 2754 1 0.135 402500.8
2736 2744 1 0.136 402500.8
2739 4542 1 0.143 267776.0
2743 2752 8 1.0 1.0 ; static  ; cg_bonded
2743 6608 8 1.0 1.0 ; chem  ; cg_bonded
2745 2753 1 0.135 402500.8
2748 6612 1 0.143 267776.0
2762 2771 8 1.0 1.0 ; static  ; cg_bonded
2762 2780 8 1.0 1.0 ; static  ; cg_bonded
2762 7870 8 1.0 1.0 ; chem  ; cg_bonded
2763 2782 1 0.135 402500.8
2764 2772 1 0.136 402500.8
2767 7874 1 0.143 267776.0
2771 2780 8 1.0 1.0 ; static  ; cg_bonded
2771 9866 8 1.0 1.0 ; chem  ; cg_bonded
2773 2781 1 0.135 402500.8
2776 9870 1 0.143 267776.0
2788 2797 8 1.0 1.0 ; static  ; cg_bonded
2788 2806 8 1.0 1.0 ; static  ; cg_bonded
2788 8318 8 1.0 1.0 ; chem  ; cg_bonded
2789 2808 1 0.135 402500.8
2790 2798 1 0.136 402500.8
2793 8322 1 0.143 267776.0
2797 2806 8 1.0 1.0 ; static  ; cg_bonded
2797 8503 8 1.0 1.0 ; chem  ; cg_bonded
2799 2807 1 0.135 402500.8
2802 8507 1 0.143 267776.0
2806 6956 8 1.0 1.0 ; chem  ; cg_bonded
2811 6960 1 0.143 267776.0
2815 2824 8 1.0 1.0 ; static  ; cg_bonded
2815 2832 8 1.0 1.0 ; static  ; cg_bonded
2815 5334 8 1.0 1.0 ; chem  ; cg_bonded
2816 2834 1 0.135 402500.8
2817 2825 1 0.136 402500.8
2820 5338 1 0.143 267776.0
2824 2832 8 1.0 1.0 ; static  ; cg_bonded
2826 2833 1 0.135 402500.8
2832 4546 8 1.0 1.0 ; chem  ; cg_bonded
2837 4550 1 0.143 267776.0
2841 2850 8 1.0 1.0 ; static  ; cg_bonded
2841 2858 8 1.0 1.0 ; static  ; cg_bonded
2841 5039 8 1.0 1.0 ; chem  ; cg_bonded
2842 2860 1 0.135 402500.8
2843 2851 1 0.136 402500.8
2846 5043 1 0.143 267776.0
2850 2858 8 1.0 1.0 ; static  ; cg_bonded
2852 2859 1 0.135 402500.8
2858 7423 8 1.0 1.0 ; chem  ; cg_bonded
2863 7427 1 0.143 267776.0
2867 2875 8 1.0 1.0 ; static  ; cg_bonded
2867 2883 8 1.0 1.0 ; static  ; cg_bonded
2868 2885 1 0.135 402500.8
2869 2876 1 0.136 402500.8
2875 2883 8 1.0 1.0 ; static  ; cg_bonded
2877 2884 1 0.135 402500.8
2891 2900 8 1.0 1.0 ; static  ; cg_bonded
2891 2908 8 1.0 1.0 ; static  ; cg_bonded
2891 6649 8 1.0 1.0 ; chem  ; cg_bonded
2892 2910 1 0.135 402500.8
2893 2901 1 0.136 402500.8
2896 6653 1 0.143 267776.0
2900 2908 8 1.0 1.0 ; static  ; cg_bonded
2902 2909 1 0.135 402500.8
2908 6633 8 1.0 1.0 ; chem  ; cg_bonded
2913 6637 1 0.143 267776.0
2917 2926 8 1.0 1.0 ; static  ; cg_bonded
2917 2935 8 1.0 1.0 ; static  ; cg_bonded
2917 7355 8 1.0 1.0 ; chem  ; cg_bonded
2918 2937 1 0.135 402500.8
2919 2927 1 0.136 402500.8
2922 7359 1 0.143 267776.0
2926 2935 8 1.0 1.0 ; static  ; cg_bonded
2926 3137 8 1.0 1.0 ; chem  ; cg_bonded
2928 2936 1 0.135 402500.8
2931 3141 1 0.143 267776.0
2935 9447 8 1.0 1.0 ; chem  ; cg_bonded
2940 9451 1 0.143 267776.0
2944 2953 8 1.0 1.0 ; static  ; cg_bonded
2944 2962 8 1.0 1.0 ; static  ; cg_bonded
2944 8994 8 1.0 1.0 ; chem  ; cg_bonded
2945 2964 1 0.135 402500.8
2946 2954 1 0.136 402500.8
2949 8998 1 0.143 267776.0
2953 2962 8 1.0 1.0 ; static  ; cg_bonded
2953 3617 8 1.0 1.0 ; chem  ; cg_bonded
2955 2963 1 0.135 402500.8
2958 3621 1 0.143 267776.0
2962 8062 8 1.0 1.0 ; chem  ; cg_bonded
2967 8066 1 0.143 267776.0
2971 2980 8 1.0 1.0 ; static  ; cg_bonded
2971 2989 8 1.0 1.0 ; static  ; cg_bonded
2971 3223 8 1.0 1.0 ; chem  ; cg_bonded
2972 2991 1 0.135 402500.8
2973 2981 1 0.136 402500.8
2976 3227 1 0.143 267776.0
2980 2989 8 1.0 1.0 ; static  ; cg_bonded
2980 7339 8 1.0 1.0 ; chem  ; cg_bonded
2982 2990 1 0.135 402500.8
2985 7343 1 0.143 267776.0
2989 10748 8 1.0 1.0 ; chem  ; cg_bonded
2994 10752 1 0.143 267776.0
2998 3007 8 1.0 1.0 ; static  ; cg_bonded
2998 3015 8 1.0 1.0 ; static  ; cg_bonded
2998 9463 8 1.0 1.0 ; chem  ; cg_bonded
2999 3017 1 0.135 402500.8
3000 3008 1 0.136 402500.8
3003 9467 1 0.143 267776.0
3007 3015 8 1.0 1.0 ; static  ; cg_bonded
3009 3016 1 0.135 402500.8
3023 3031 8 1.0 1.0 ; static  ; cg_bonded
3023 3040 8 1.0 1.0 ; static  ; cg_bonded
3024 3042 1 0.135 402500.8
3025 3032 1 0.136 402500.8
3031 3040 8 1.0 1.0 ; static  ; cg_bonded
3031 7947 8 1.0 1.0 ; chem  ; cg_bonded
3033 3041 1 0.135 402500.8
3036 7951 1 0.143 267776.0
3048 3056 8 1.0 1.0 ; static  ; cg_bonded
3048 3065 8 1.0 1.0 ; static  ; cg_bonded
3049 3067 1 0.135 402500.8
3050 3057 1 0.136 402500.8
3056 3065 8 1.0 1.0 ; static  ; cg_bonded
3056 7284 8 1.0 1.0 ; chem  ; cg_bonded
3058 3066 1 0.135 402500.8
3061 7288 1 0.143 267776.0
3065 11919 8 1.0 1.0 ; chem  ; cg_bonded
3070 11923 1 0.143 267776.0
3074 3083 8 1.0 1.0 ; static  ; cg_bonded
3074 3093 8 1.0 1.0 ; static  ; cg_bonded
3074 3206 8 1.0 1.0 ; chem  ; cg_bonded
3075 3095 1 0.135 402500.8
3076 3084 1 0.136 402500.8
3079 3210 1 0.143 267776.0
3083 3093 8 1.0 1.0 ; static  ; cg_bonded
3085 3094 1 0.135 402500.8
3093 4952 8 1.0 1.0 ; chem  ; cg_bonded
3098 4956 1 0.143 267776.0
3102 3110 8 1.0 1.0 ; static  ; cg_bonded
3102 3119 8 1.0 1.0 ; static  ; cg_bonded
3103 3121 1 0.135 402500.8
3104 3111 1 0.136 402500.8
3110 3119 8 1.0 1.0 ; static  ; cg_bonded
3110 12432 8 1.0 1.0 ; chem  ; cg_bonded
3112 3120 1 0.135 402500.8
3115 12436 1 0.143 267776.0
3119 10370 8 1.0 1.0 ; chem  ; cg_bonded
3124 10374 1 0.143 267776.0
3128 3137 8 1.0 1.0 ; static  ; cg_bonded
3128 3145 8 1.0 1.0 ; static  ; cg_bonded
3128 10597 8 1.0 1.0 ; chem  ; cg_bonded
3129 3147 1 0.135 402500.8
3130 3138 1 0.136 402500.8
3133 10601 1 0.143 267776.0
3137 3145 8 1.0 1.0 ; static  ; cg_bonded
3139 3146 1 0.135 402500.8
3153 3161 8 1.0 1.0 ; static  ; cg_bonded
3153 3170 8 1.0 1.0 ; static  ; cg_bonded
3154 3172 1 0.135 402500.8
3155 3162 1 0.136 402500.8
3161 3170 8 1.0 1.0 ; static  ; cg_bonded
3161 7828 8 1.0 1.0 ; chem  ; cg_bonded
3163 3171 1 0.135 402500.8
3166 7832 1 0.143 267776.0
3178 3187 8 1.0 1.0 ; static  ; cg_bonded
3178 3197 8 1.0 1.0 ; static  ; cg_bonded
3178 6862 8 1.0 1.0 ; chem  ; cg_bonded
3179 3199 1 0.135 402500.8
3180 3188 1 0.136 402500.8
3183 6866 1 0.143 267776.0
3187 3197 8 1.0 1.0 ; static  ; cg_bonded
3189 3198 1 0.135 402500.8
3197 4130 8 1.0 1.0 ; chem  ; cg_bonded
3202 4134 1 0.143 267776.0
3206 3214 8 1.0 1.0 ; static  ; cg_bonded
3206 3223 8 1.0 1.0 ; static  ; cg_bonded
3207 3225 1 0.135 402500.8
3208 3215 1 0.136 402500.8
3214 3223 8 1.0 1.0 ; static  ; cg_bonded
3214 12912 8 1.0 1.0 ; chem  ; cg_bonded
3216 3224 1 0.135 402500.8
3219 12916 1 0.143 267776.0
3231 3240 8 1.0 1.0 ; static  ; cg_bonded
3231 3250 8 1.0 1.0 ; static  ; cg_bonded
3231 10780 8 1.0 1.0 ; chem  ; cg_bonded
3232 3252 1 0.135 402500.8
3233 3241 1 0.136 402500.8
3236 10784 1 0.143 267776.0
3240 3250 8 1.0 1.0 ; static  ; cg_bonded
3242 3251 1 0.135 402500.8
3250 11820 8 1.0 1.0 ; chem  ; cg_bonded
3255 11824 1 0.143 267776.0
3259 3268 8 1.0 1.0 ; static  ; cg_bonded
3259 3277 8 1.0 1.0 ; static  ; cg_bonded
3259 5463 8 1.0 1.0 ; chem  ; cg_bonded
3260 3279 1 0.135 402500.8
3261 3269 1 0.136 402500.8
3264 5467 1 0.143 267776.0
3268 3277 8 1.0 1.0 ; static  ; cg_bonded
3268 4362 8 1.0 1.0 ; chem  ; cg_bonded
3270 3278 1 0.135 402500.8
3273 4366 1 0.143 267776.0
3277 12262 8 1.0 1.0 ; chem  ; cg_bonded
3282 12266 1 0.143 267776.0
3286 3295 8 1.0 1.0 ; static  ; cg_bonded
3286 3304 8 1.0 1.0 ; static  ; cg_bonded
3286 9286 8 1.0 1.0 ; chem  ; cg_bonded
3287 3306 1 0.135 402500.8
3288 3296 1 0.136 402500.8
3291 9290 1 0.143 267776.0
3295 3304 8 1.0 1.0 ; static  ; cg_bonded
3295 6549 8 1.0 1.0 ; chem  ; cg_bonded
3297 3305 1 0.135 402500.8
3300 6553 1 0.143 267776.0
3304 12506 8 1.0 1.0 ; chem  ; cg_bonded
3309 12510 1 0.143 267776.0
3313 3321 8 1.0 1.0 ; static  ; cg_bonded
3313 3330 8 1.0 1.0 ; static  ; cg_bonded
3314 3332 1 0.135 402500.8
3315 3322 1 0.136 402500.8
3321 3330 8 1.0 1.0 ; static  ; cg_bonded
3321 4688 8 1.0 1.0 ; chem  ; cg_bonded
3323 3331 1 0.135 402500.8
3326 4692 1 0.143 267776.0
3330 9278 8 1.0 1.0 ; chem  ; cg_bonded
3335 9282 1 0.143 267776.0
3339 3349 8 1.0 1.0 ; static  ; cg_bonded
3339 3359 8 1.0 1.0 ; static  ; cg_bonded
3340 3361 1 0.135 402500.8
3341 3350 1 0.136 402500.8
3349 3359 8 1.0 1.0 ; static  ; cg_bonded
3351 3360 1 0.135 402500.8
3359 7465 8 1.0 1.0 ; chem  ; cg_bonded
3364 7469 1 0.143 267776.0
3368 3377 8 1.0 1.0 ; static  ; cg_bonded
3368 3387 8 1.0 1.0 ; static  ; cg_bonded
3368 4328 8 1.0 1.0 ; chem  ; cg_bonded
3369 3389 1 0.135 402500.8
3370 3378 1 0.136 402500.8
3373 4332 1 0.143 267776.0
3377 3387 8 1.0 1.0 ; static  ; cg_bonded
3379 3388 1 0.135 402500.8
3387 8824 8 1.0 1.0 ; chem  ; cg_bonded
3392 8828 1 0.143 267776.0
3396 3405 8 1.0 1.0 ; static  ; cg_bonded
3396 3414 8 1.0 1.0 ; static  ; cg_bonded
3396 11380 8 1.0 1.0 ; chem  ; cg_bonded
3397 3416 1 0.135 402500.8
3398 3406 1 0.136 402500.8
3401 11384 1 0.143 267776.0
3405 3414 8 1.0 1.0 ; static  ; cg_bonded
3405 9102 8 1.0 1.0 ; chem  ; cg_bonded
3407 3415 1 0.135 402500.8
3410 9106 1 0.143 267776.0
3414 6665 8 1.0 1.0 ; chem  ; cg_bonded
3419 6669 1 0.143 267776.0
3423 3432 8 1.0 1.0 ; static  ; cg_bonded
3423 3441 8 1.0 1.0 ; static  ; cg_bonded
3423 6930 8 1.0 1.0 ; chem  ; cg_bonded
3424 3443 1 0.135 402500.8
3425 3433 1 0.136 402500.8
3428 6934 1 0.143 267776.0
3432 3441 8 1.0 1.0 ; static  ; cg_bonded
3432 8461 8 1.0 1.0 ; chem  ; cg_bonded
3434 3442 1 0.135 402500.8
3437 8465 1 0.143 267776.0
3441 11682 8 1.0 1.0 ; chem  ; cg_bonded
3446 11686 1 0.143 267776.0
3450 3459 8 1.0 1.0 ; static  ; cg_bonded
3450 3469 8 1.0 1.0 ; static  ; cg_bonded
3450 7130 8 1.0 1.0 ; chem  ; cg_bonded
3451 3471 1 0.135 402500.8
3452 3460 1 0.136 402500.8
3455 7134 1 0.143 267776.0
3459 3469 8 1.0 1.0 ; static  ; cg_bonded
3461 3470 1 0.135 402500.8
3469 6358 8 1.0 1.0 ; chem  ; cg_bonded
3474 6362 1 0.143 267776.0
3478 3487 8 1.0 1.0 ; static  ; cg_bonded
3478 3496 8 1.0 1.0 ; static  ; cg_bonded
3478 5299 8 1.0 1.0 ; chem  ; cg_bonded
3479 3498 1 0.135 402500.8
3480 3488 1 0.136 402500.8
3483 5303 1 0.143 267776.0
3487 3496 8 1.0 1.0 ; static  ; cg_bonded
3487 11845 8 1.0 1.0 ; chem  ; cg_bonded
3489 3497 1 0.135 402500.8
3492 11849 1 0.143 267776.0
3496 12574 8 1.0 1.0 ; chem  ; cg_bonded
3501 12578 1 0.143 267776.0
3505 3513 8 1.0 1.0 ; static  ; cg_bonded
3505 3522 8 1.0 1.0 ; static  ; cg_bonded
3506 3524 1 0.135 402500.8
3507 3514 1 0.136 402500.8
3513 3522 8 1.0 1.0 ; static  ; cg_bonded
3513 11862 8 1.0 1.0 ; chem  ; cg_bonded
3515 3523 1 0.135 402500.8
3518 11866 1 0.143 267776.0
3522 6293 8 1.0 1.0 ; chem  ; cg_bonded
3527 6297 1 0.143 267776.0
3531 3540 8 1.0 1.0 ; static  ; cg_bonded
3531 3549 8 1.0 1.0 ; static  ; cg_bonded
3531 5635 8 1.0 1.0 ; chem  ; cg_bonded
3532 3551 1 0.135 402500.8
3533 3541 1 0.136 402500.8
3536 5639 1 0.143 267776.0
3540 3549 8 1.0 1.0 ; static  ; cg_bonded
3540 7649 8 1.0 1.0 ; chem  ; cg_bonded
3542 3550 1 0.135 402500.8
3545 7653 1 0.143 267776.0
3549 3567 8 1.0 1.0 ; chem  ; cg_bonded
3554 3571 1 0.143 267776.0
3558 3567 8 1.0 1.0 ; static  ; cg_bonded
3558 3575 8 1.0 1.0 ; static  ; cg_bonded
3558 6641 8 1.0 1.0 ; chem  ; cg_bonded
3559 3577 1 0.135 402500.8
3560 3568 1 0.136 402500.8
3563 6645 1 0.143 267776.0
3567 3575 8 1.0 1.0 ; static  ; cg_bonded
3569 3576 1 0.135 402500.8
3583 3592 8 1.0 1.0 ; static  ; cg_bonded
3583 3600 8 1.0 1.0 ; static  ; cg_bonded
3583 8181 8 1.0 1.0 ; chem  ; cg_bonded
3584 3602 1 0.135 402500.8
3585 3593 1 0.136 402500.8
3588 8185 1 0.143 267776.0
3592 3600 8 1.0 1.0 ; static  ; cg_bonded
3594 3601 1 0.135 402500.8
3608 3617 8 1.0 1.0 ; static  ; cg_bonded
3608 3625 8 1.0 1.0 ; static  ; cg_bonded
3608 12390 8 1.0 1.0 ; chem  ; cg_bonded
3609 3627 1 0.135 402500.8
3610 3618 1 0.136 402500.8
3613 12394 1 0.143 267776.0
3617 3625 8 1.0 1.0 ; static  ; cg_bonded
3619 3626 1 0.135 402500.8
3625 5282 8 1.0 1.0 ; chem  ; cg_bonded
3630 5286 1 0.143 267776.0
3634 3642 8 1.0 1.0 ; static  ; cg_bonded
3634 3651 8 1.0 1.0 ; static  ; cg_bonded
3635 3653 1 0.135 402500.8
3636 3643 1 0.136 402500.8
3642 3651 8 1.0 1.0 ; static  ; cg_bonded
3642 10049 8 1.0 1.0 ; chem  ; cg_bonded
3644 3652 1 0.135 402500.8
3647 10053 1 0.143 267776.0
3659 3669 8 1.0 1.0 ; static  ; cg_bonded
3659 3678 8 1.0 1.0 ; static  ; cg_bonded
3660 3680 1 0.135 402500.8
3661 3670 1 0.136 402500.8
3669 3678 8 1.0 1.0 ; static  ; cg_bonded
3669 5515 8 1.0 1.0 ; chem  ; cg_bonded
3671 3679 1 0.135 402500.8
3674 5519 1 0.143 267776.0
3678 6105 8 1.0 1.0 ; chem  ; cg_bonded
3683 6109 1 0.143 267776.0
3687 3696 8 1.0 1.0 ; static  ; cg_bonded
3687 3705 8 1.0 1.0 ; static  ; cg_bonded
3687 12440 8 1.0 1.0 ; chem  ; cg_bonded
3688 3707 1 0.135 402500.8
3689 3697 1 0.136 402500.8
3692 12444 1 0.143 267776.0
3696 3705 8 1.0 1.0 ; static  ; cg_bonded
3696 11796 8 1.0 1.0 ; chem  ; cg_bonded
3698 3706 1 0.135 402500.8
3701 11800 1 0.143 267776.0
3713 3722 8 1.0 1.0 ; static  ; cg_bonded
3713 3731 8 1.0 1.0 ; static  ; cg_bonded
3713 5871 8 1.0 1.0 ; chem  ; cg_bonded
3714 3733 1 0.135 402500.8
3715 3723 1 0.136 402500.8
3718 5875 1 0.143 267776.0
3722 3731 8 1.0 1.0 ; static  ; cg_bonded
3722 12045 8 1.0 1.0 ; chem  ; cg_bonded
3724 3732 1 0.135 402500.8
3727 12049 1 0.143 267776.0
3731 12920 8 1.0 1.0 ; chem  ; cg_bonded
3736 12924 1 0.143 267776.0
3740 3749 8 1.0 1.0 ; static  ; cg_bonded
3740 3757 8 1.0 1.0 ; static  ; cg_bonded
3740 7803 8 1.0 1.0 ; chem  ; cg_bonded
3741 3759 1 0.135 402500.8
3742 3750 1 0.136 402500.8
3745 7807 1 0.143 267776.0
3749 3757 8 1.0 1.0 ; static  ; cg_bonded
3751 3758 1 0.135 402500.8
3757 11300 8 1.0 1.0 ; chem  ; cg_bonded
3762 11304 1 0.143 267776.0
3766 3776 8 1.0 1.0 ; static  ; cg_bonded
3766 3785 8 1.0 1.0 ; static  ; cg_bonded
3767 3787 1 0.135 402500.8
3768 3777 1 0.136 402500.8
3776 3785 8 1.0 1.0 ; static  ; cg_bonded
3776 11886 8 1.0 1.0 ; chem  ; cg_bonded
3778 3786 1 0.135 402500.8
3781 11890 1 0.143 267776.0
3785 9213 8 1.0 1.0 ; chem  ; cg_bonded
3790 9217 1 0.143 267776.0
3794 3802 8 1.0 1.0 ; static  ; cg_bonded
3794 3811 8 1.0 1.0 ; static  ; cg_bonded
3795 3813 1 0.135 402500.8
3796 3803 1 0.136 402500.8
3802 3811 8 1.0 1.0 ; static  ; cg_bonded
3802 10907 8 1.0 1.0 ; chem  ; cg_bonded
3804 3812 1 0.135 402500.8
3807 10911 1 0.143 267776.0
3819 3828 8 1.0 1.0 ; static  ; cg_bonded
3819 3836 8 1.0 1.0 ; static  ; cg_bonded
3819 5395 8 1.0 1.0 ; chem  ; cg_bonded
3820 3838 1 0.135 402500.8
3821 3829 1 0.136 402500.8
3824 5399 1 0.143 267776.0
3828 3836 8 1.0 1.0 ; static  ; cg_bonded
3830 3837 1 0.135 402500.8
3836 4504 8 1.0 1.0 ; chem  ; cg_bonded
3841 4508 1 0.143 267776.0
3845 3854 8 1.0 1.0 ; static  ; cg_bonded
3845 3863 8 1.0 1.0 ; static  ; cg_bonded
3845 11120 8 1.0 1.0 ; chem  ; cg_bonded
3846 3865 1 0.135 402500.8
3847 3855 1 0.136 402500.8
3850 11124 1 0.143 267776.0
3854 3863 8 1.0 1.0 ; static  ; cg_bonded
3854 11388 8 1.0 1.0 ; chem  ; cg_bonded
3856 3864 1 0.135 402500.8
3859 11392 1 0.143 267776.0
3871 3880 8 1.0 1.0 ; static  ; cg_bonded
3871 3890 8 1.0 1.0 ; static  ; cg_bonded
3871 5246 8 1.0 1.0 ; chem  ; cg_bonded
3872 3892 1 0.135 402500.8
3873 3881 1 0.136 402500.8
3876 5250 1 0.143 267776.0
3880 3890 8 1.0 1.0 ; static  ; cg_bonded
3882 3891 1 0.135 402500.8
3890 5821 8 1.0 1.0 ; chem  ; cg_bonded
3895 5825 1 0.143 267776.0
3899 3909 8 1.0 1.0 ; static  ; cg_bonded
3899 3917 8 1.0 1.0 ; static  ; cg_bonded
3900 3919 1 0.135 402500.8
3901 3910 1 0.136 402500.8
3909 3917 8 1.0 1.0 ; static  ; cg_bonded
3911 3918 1 0.135 402500.8
3917 7878 8 1.0 1.0 ; chem  ; cg_bonded
3922 7882 1 0.143 267776.0
3926 3935 8 1.0 1.0 ; static  ; cg_bonded
3926 3944 8 1.0 1.0 ; static  ; cg_bonded
3926 12696 8 1.0 1.0 ; chem  ; cg_bonded
3927 3946 1 0.135 402500.8
3928 3936 1 0.136 402500.8
3931 12700 1 0.143 267776.0
3935 3944 8 1.0 1.0 ; static  ; cg_bonded
3935 5854 8 1.0 1.0 ; chem  ; cg_bonded
3937 3945 1 0.135 402500.8
3940 5858 1 0.143 267776.0
3944 8384 8 1.0 1.0 ; chem  ; cg_bonded
3949 8388 1 0.143 267776.0
3953 3962 8 1.0 1.0 ; static  ; cg_bonded
3953 3972 8 1.0 1.0 ; static  ; cg_bonded
3953 10041 8 1.0 1.0 ; chem  ; cg_bonded
3954 3974 1 0.135 402500.8
3955 3963 1 0.136 402500.8
3958 10045 1 0.143 267776.0
3962 3972 8 1.0 1.0 ; static  ; cg_bonded
3964 3973 1 0.135 402500.8
3980 3988 8 1.0 1.0 ; static  ; cg_bonded
3980 3997 8 1.0 1.0 ; static  ; cg_bonded
3981 3999 1 0.135 402500.8
3982 3989 1 0.136 402500.8
3988 3997 8 1.0 1.0 ; static  ; cg_bonded
3988 12736 8 1.0 1.0 ; chem  ; cg_bonded
3990 3998 1 0.135 402500.8
3993 12740 1 0.143 267776.0
3997 11812 8 1.0 1.0 ; chem  ; cg_bonded
4002 11816 1 0.143 267776.0
4006 4015 8 1.0 1.0 ; static  ; cg_bonded
4006 4024 8 1.0 1.0 ; static  ; cg_bonded
4006 7543 8 1.0 1.0 ; chem  ; cg_bonded
4007 4026 1 0.135 402500.8
4008 4016 1 0.136 402500.8
4011 7547 1 0.143 267776.0
4015 4024 8 1.0 1.0 ; static  ; cg_bonded
4015 12087 8 1.0 1.0 ; chem  ; cg_bonded
4017 4025 1 0.135 402500.8
4020 12091 1 0.143 267776.0
4024 8002 8 1.0 1.0 ; chem  ; cg_bonded
4029 8006 1 0.143 267776.0
4033 4042 8 1.0 1.0 ; static  ; cg_bonded
4033 4050 8 1.0 1.0 ; static  ; cg_bonded
4033 6444 8 1.0 1.0 ; chem  ; cg_bonded
4034 4052 1 0.135 402500.8
4035 4043 1 0.136 402500.8
4038 6448 1 0.143 267776.0
4042 4050 8 1.0 1.0 ; static  ; cg_bonded
4044 4051 1 0.135 402500.8
4050 9254 8 1.0 1.0 ; chem  ; cg_bonded
4055 9258 1 0.143 267776.0
4059 4068 8 1.0 1.0 ; static  ; cg_bonded
4059 4076 8 1.0 1.0 ; static  ; cg_bonded
4059 6981 8 1.0 1.0 ; chem  ; cg_bonded
4060 4078 1 0.135 402500.8
4061 4069 1 0.136 402500.8
4064 6985 1 0.143 267776.0
4068 4076 8 1.0 1.0 ; static  ; cg_bonded
4070 4077 1 0.135 402500.8
4084 4094 8 1.0 1.0 ; static  ; cg_bonded
4084 4103 8 1.0 1.0 ; static  ; cg_bonded
4085 4105 1 0.135 402500.8
4086 4095 1 0.136 402500.8
4094 4103 8 1.0 1.0 ; static  ; cg_bonded
4094 9330 8 1.0 1.0 ; chem  ; cg_bonded
4096 4104 1 0.135 402500.8
4099 9334 1 0.143 267776.0
4103 9725 8 1.0 1.0 ; chem  ; cg_bonded
4108 9729 1 0.143 267776.0
4112 4121 8 1.0 1.0 ; static  ; cg_bonded
4112 4130 8 1.0 1.0 ; static  ; cg_bonded
4112 6600 8 1.0 1.0 ; chem  ; cg_bonded
4113 4132 1 0.135 402500.8
4114 4122 1 0.136 402500.8
4117 6604 1 0.143 267776.0
4121 4130 8 1.0 1.0 ; static  ; cg_bonded
4121 7347 8 1.0 1.0 ; chem  ; cg_bonded
4123 4131 1 0.135 402500.8
4126 7351 1 0.143 267776.0
4138 4147 8 1.0 1.0 ; static  ; cg_bonded
4138 4155 8 1.0 1.0 ; static  ; cg_bonded
4138 5837 8 1.0 1.0 ; chem  ; cg_bonded
4139 4157 1 0.135 402500.8
4140 4148 1 0.136 402500.8
4143 5841 1 0.143 267776.0
4147 4155 8 1.0 1.0 ; static  ; cg_bonded
4149 4156 1 0.135 402500.8
4155 12960 8 1.0 1.0 ; chem  ; cg_bonded
4160 12964 1 0.143 267776.0
4164 4172 8 1.0 1.0 ; static  ; cg_bonded
4164 4182 8 1.0 1.0 ; static  ; cg_bonded
4165 4184 1 0.135 402500.8
4166 4173 1 0.136 402500.8
4172 4182 8 1.0 1.0 ; static  ; cg_bonded
4174 4183 1 0.135 402500.8
4182 6490 8 1.0 1.0 ; chem  ; cg_bonded
4187 6494 1 0.143 267776.0
4191 4201 8 1.0 1.0 ; static  ; cg_bonded
4191 4210 8 1.0 1.0 ; static  ; cg_bonded
4192 4212 1 0.135 402500.8
4193 4202 1 0.136 402500.8
4201 4210 8 1.0 1.0 ; static  ; cg_bonded
4201 11977 8 1.0 1.0 ; chem  ; cg_bonded
4203 4211 1 0.135 402500.8
4206 11981 1 0.143 267776.0
4210 8495 8 1.0 1.0 ; chem  ; cg_bonded
4215 8499 1 0.143 267776.0
4219 4229 8 1.0 1.0 ; static  ; cg_bonded
4219 4238 8 1.0 1.0 ; static  ; cg_bonded
4220 4240 1 0.135 402500.8
4221 4230 1 0.136 402500.8
4229 4238 8 1.0 1.0 ; static  ; cg_bonded
4229 11606 8 1.0 1.0 ; chem  ; cg_bonded
4231 4239 1 0.135 402500.8
4234 11610 1 0.143 267776.0
4238 6541 8 1.0 1.0 ; chem  ; cg_bonded
4243 6545 1 0.143 267776.0
4247 4256 8 1.0 1.0 ; static  ; cg_bonded
4247 4266 8 1.0 1.0 ; static  ; cg_bonded
4247 12532 8 1.0 1.0 ; chem  ; cg_bonded
4248 4268 1 0.135 402500.8
4249 4257 1 0.136 402500.8
4252 12536 1 0.143 267776.0
4256 4266 8 1.0 1.0 ; static  ; cg_bonded
4258 4267 1 0.135 402500.8
4266 4607 8 1.0 1.0 ; chem  ; cg_bonded
4271 4611 1 0.143 267776.0
4275 4283 8 1.0 1.0 ; static  ; cg_bonded
4275 4293 8 1.0 1.0 ; static  ; cg_bonded
4276 4295 1 0.135 402500.8
4277 4284 1 0.136 402500.8
4283 4293 8 1.0 1.0 ; static  ; cg_bonded
4285 4294 1 0.135 402500.8
4293 12071 8 1.0 1.0 ; chem  ; cg_bonded
4298 12075 1 0.143 267776.0
4302 4311 8 1.0 1.0 ; static  ; cg_bonded
4302 4319 8 1.0 1.0 ; static  ; cg_bonded
4302 5662 8 1.0 1.0 ; chem  ; cg_bonded
4303 4321 1 0.135 402500.8
4304 4312 1 0.136 402500.8
4307 5666 1 0.143 267776.0
4311 4319 8 1.0 1.0 ; static  ; cg_bonded
4313 4320 1 0.135 402500.8
4319 8189 8 1.0 1.0 ; chem  ; cg_bonded
4324 8193 1 0.143 267776.0
4328 4336 8 1.0 1.0 ; static  ; cg_bonded
4328 4345 8 1.0 1.0 ; static  ; cg_bonded
4329 4347 1 0.135 402500.8
4330 4337 1 0.136 402500.8
4336 4345 8 1.0 1.0 ; static  ; cg_bonded
4336 10456 8 1.0 1.0 ; chem  ; cg_bonded
4338 4346 1 0.135 402500.8
4341 10460 1 0.143 267776.0
4345 5965 8 1.0 1.0 ; chem  ; cg_bonded
4350 5969 1 0.143 267776.0
4354 4362 8 1.0 1.0 ; static  ; cg_bonded
4354 4370 8 1.0 1.0 ; static  ; cg_bonded
4355 4372 1 0.135 402500.8
4356 4363 1 0.136 402500.8
4362 4370 8 1.0 1.0 ; static  ; cg_bonded
4364 4371 1 0.135 402500.8
4378 4387 8 1.0 1.0 ; static  ; cg_bonded
4378 4396 8 1.0 1.0 ; static  ; cg_bonded
4378 12310 8 1.0 1.0 ; chem  ; cg_bonded
4379 4398 1 0.135 402500.8
4380 4388 1 0.136 402500.8
4383 12314 1 0.143 267776.0
4387 4396 8 1.0 1.0 ; static  ; cg_bonded
4387 7613 8 1.0 1.0 ; chem  ; cg_bonded
4389 4397 1 0.135 402500.8
4392 7617 1 0.143 267776.0
4406 4415 8 1.0 1.0 ; static  ; cg_bonded
4406 4424 8 1.0 1.0 ; static  ; cg_bonded
4406 7233 8 1.0 1.0 ; chem  ; cg_bonded
4407 4426 1 0.135 402500.8
4408 4416 1 0.136 402500.8
4411 7237 1 0.143 267776.0
4415 4424 8 1.0 1.0 ; static  ; cg_bonded
4415 8054 8 1.0 1.0 ; chem  ; cg_bonded
4417 4425 1 0.135 402500.8
4420 8058 1 0.143 267776.0
4424 5609 8 1.0 1.0 ; chem  ; cg_bonded
4429 5613 1 0.143 267776.0
4433 4442 8 1.0 1.0 ; static  ; cg_bonded
4433 4451 8 1.0 1.0 ; static  ; cg_bonded
4433 8595 8 1.0 1.0 ; chem  ; cg_bonded
4434 4453 1 0.135 402500.8
4435 4443 1 0.136 402500.8
4438 8599 1 0.143 267776.0
4442 4451 8 1.0 1.0 ; static  ; cg_bonded
4442 10529 8 1.0 1.0 ; chem  ; cg_bonded
4444 4452 1 0.135 402500.8
4447 10533 1 0.143 267776.0
4451 10663 8 1.0 1.0 ; chem  ; cg_bonded
4456 10667 1 0.143 267776.0
4460 4469 8 1.0 1.0 ; static  ; cg_bonded
4460 4478 8 1.0 1.0 ; static  ; cg_bonded
4460 9557 8 1.0 1.0 ; chem  ; cg_bonded
4461 4480 1 0.135 402500.8
4462 4470 1 0.136 402500.8
4465 9561 1 0.143 267776.0
4469 4478 8 1.0 1.0 ; static  ; cg_bonded
4469 7439 8 1.0 1.0 ; chem  ; cg_bonded
4471 4479 1 0.135 402500.8
4474 7443 1 0.143 267776.0
4478 11056 8 1.0 1.0 ; chem  ; cg_bonded
4483 11060 1 0.143 267776.0
4487 4495 8 1.0 1.0 ; static  ; cg_bonded
4487 4504 8 1.0 1.0 ; static  ; cg_bonded
4488 4506 1 0.135 402500.8
4489 4496 1 0.136 402500.8
4495 4504 8 1.0 1.0 ; static  ; cg_bonded
4495 7886 8 1.0 1.0 ; chem  ; cg_bonded
4497 4505 1 0.135 402500.8
4500 7890 1 0.143 267776.0
4512 4521 8 1.0 1.0 ; static  ; cg_bonded
4512 4529 8 1.0 1.0 ; static  ; cg_bonded
4512 9497 8 1.0 1.0 ; chem  ; cg_bonded
4513 4531 1 0.135 402500.8
4514 4522 1 0.136 402500.8
4517 9501 1 0.143 267776.0
4521 4529 8 1.0 1.0 ; static  ; cg_bonded
4523 4530 1 0.135 402500.8
4529 10974 8 1.0 1.0 ; chem  ; cg_bonded
4534 10978 1 0.143 267776.0
4538 4546 8 1.0 1.0 ; static  ; cg_bonded
4538 4554 8 1.0 1.0 ; static  ; cg_bonded
4539 4556 1 0.135 402500.8
4540 4547 1 0.136 402500.8
4546 4554 8 1.0 1.0 ; static  ; cg_bonded
4548 4555 1 0.135 402500.8
4554 10496 8 1.0 1.0 ; chem  ; cg_bonded
4559 10500 1 0.143 267776.0
4563 4572 8 1.0 1.0 ; static  ; cg_bonded
4563 4580 8 1.0 1.0 ; static  ; cg_bonded
4563 4968 8 1.0 1.0 ; chem  ; cg_bonded
4564 4582 1 0.135 402500.8
4565 4573 1 0.136 402500.8
4568 4972 1 0.143 267776.0
4572 4580 8 1.0 1.0 ; static  ; cg_bonded
4574 4581 1 0.135 402500.8
4580 6410 8 1.0 1.0 ; chem  ; cg_bonded
4585 6414 1 0.143 267776.0
4589 4598 8 1.0 1.0 ; static  ; cg_bonded
4589 4607 8 1.0 1.0 ; static  ; cg_bonded
4589 12784 8 1.0 1.0 ; chem  ; cg_bonded
4590 4609 1 0.135 402500.8
4591 4599 1 0.136 402500.8
4594 12788 1 0.143 267776.0
4598 4607 8 1.0 1.0 ; static  ; cg_bonded
4598 11445 8 1.0 1.0 ; chem  ; cg_bonded
4600 4608 1 0.135 402500.8
4603 11449 1 0.143 267776.0
4615 4624 8 1.0 1.0 ; static  ; cg_bonded
4615 4634 8 1.0 1.0 ; static  ; cg_bonded
4615 10131 8 1.0 1.0 ; chem  ; cg_bonded
4616 4636 1 0.135 402500.8
4617 4625 1 0.136 402500.8
4620 10135 1 0.143 267776.0
4624 4634 8 1.0 1.0 ; static  ; cg_bonded
4626 4635 1 0.135 402500.8
4634 9164 8 1.0 1.0 ; chem  ; cg_bonded
4639 9168 1 0.143 267776.0
4643 4652 8 1.0 1.0 ; static  ; cg_bonded
4643 4661 8 1.0 1.0 ; static  ; cg_bonded
4643 10764 8 1.0 1.0 ; chem  ; cg_bonded
4644 4663 1 0.135 402500.8
4645 4653 1 0.136 402500.8
4648 10768 1 0.143 267776.0
4652 4661 8 1.0 1.0 ; static  ; cg_bonded
4652 5350 8 1.0 1.0 ; chem  ; cg_bonded
4654 4662 1 0.135 402500.8
4657 5354 1 0.143 267776.0
4661 10488 8 1.0 1.0 ; chem  ; cg_bonded
4666 10492 1 0.143 267776.0
4670 4679 8 1.0 1.0 ; static  ; cg_bonded
4670 4688 8 1.0 1.0 ; static  ; cg_bonded
4670 11539 8 1.0 1.0 ; chem  ; cg_bonded
4671 4690 1 0.135 402500.8
4672 4680 1 0.136 402500.8
4675 11543 1 0.143 267776.0
4679 4688 8 1.0 1.0 ; static  ; cg_bonded
4679 10589 8 1.0 1.0 ; chem  ; cg_bonded
4681 4689 1 0.135 402500.8
4684 10593 1 0.143 267776.0
4696 4705 8 1.0 1.0 ; static  ; cg_bonded
4696 4713 8 1.0 1.0 ; static  ; cg_bonded
4696 11348 8 1.0 1.0 ; chem  ; cg_bonded
4697 4715 1 0.135 402500.8
4698 4706 1 0.136 402500.8
4701 11352 1 0.143 267776.0
4705 4713 8 1.0 1.0 ; static  ; cg_bonded
4707 4714 1 0.135 402500.8
4713 4838 8 1.0 1.0 ; chem  ; cg_bonded
4718 4842 1 0.143 267776.0
4722 4731 8 1.0 1.0 ; static  ; cg_bonded
4722 4740 8 1.0 1.0 ; static  ; cg_bonded
4722 8587 8 1.0 1.0 ; chem  ; cg_bonded
4723 4742 1 0.135 402500.8
4724 4732 1 0.136 402500.8
4727 8591 1 0.143 267776.0
4731 4740 8 1.0 1.0 ; static  ; cg_bonded
4731 7113 8 1.0 1.0 ; chem  ; cg_bonded
4733 4741 1 0.135 402500.8
4736 7117 1 0.143 267776.0
4750 4759 8 1.0 1.0 ; static  ; cg_bonded
4750 4768 8 1.0 1.0 ; static  ; cg_bonded
4750 5307 8 1.0 1.0 ; chem  ; cg_bonded
4751 4770 1 0.135 402500.8
4752 4760 1 0.136 402500.8
4755 5311 1 0.143 267776.0
4759 4768 8 1.0 1.0 ; static  ; cg_bonded
4759 5057 8 1.0 1.0 ; chem  ; cg_bonded
4761 4769 1 0.135 402500.8
4764 5061 1 0.143 267776.0
4768 7138 8 1.0 1.0 ; chem  ; cg_bonded
4773 7142 1 0.143 267776.0
4777 4786 8 1.0 1.0 ; static  ; cg_bonded
4777 4795 8 1.0 1.0 ; static  ; cg_bonded
4777 11487 8 1.0 1.0 ; chem  ; cg_bonded
4778 4797 1 0.135 402500.8
4779 4787 1 0.136 402500.8
4782 11491 1 0.143 267776.0
4786 4795 8 1.0 1.0 ; static  ; cg_bonded
4786 10421 8 1.0 1.0 ; chem  ; cg_bonded
4788 4796 1 0.135 402500.8
4791 10425 1 0.143 267776.0
4803 4812 8 1.0 1.0 ; static  ; cg_bonded
4803 4821 8 1.0 1.0 ; static  ; cg_bonded
4803 12464 8 1.0 1.0 ; chem  ; cg_bonded
4804 4823 1 0.135 402500.8
4805 4813 1 0.136 402500.8
4808 12468 1 0.143 267776.0
4812 4821 8 1.0 1.0 ; static  ; cg_bonded
4812 8258 8 1.0 1.0 ; chem  ; cg_bonded
4814 4822 1 0.135 402500.8
4817 8262 1 0.143 267776.0
4821 9196 8 1.0 1.0 ; chem  ; cg_bonded
4826 9200 1 0.143 267776.0
4830 4838 8 1.0 1.0 ; static  ; cg_bonded
4830 4846 8 1.0 1.0 ; static  ; cg_bonded
4831 4848 1 0.135 402500.8
4832 4839 1 0.136 402500.8
4838 4846 8 1.0 1.0 ; static  ; cg_bonded
4840 4847 1 0.135 402500.8
4846 7431 8 1.0 1.0 ; chem  ; cg_bonded
4851 7435 1 0.143 267776.0
4855 4864 8 1.0 1.0 ; static  ; cg_bonded
4855 4872 8 1.0 1.0 ; static  ; cg_bonded
4855 8986 8 1.0 1.0 ; chem  ; cg_bonded
4856 4874 1 0.135 402500.8
4857 4865 1 0.136 402500.8
4860 8990 1 0.143 267776.0
4864 4872 8 1.0 1.0 ; static  ; cg_bonded
4866 4873 1 0.135 402500.8
4872 7077 8 1.0 1.0 ; chem  ; cg_bonded
4877 7081 1 0.143 267776.0
4881 4890 8 1.0 1.0 ; static  ; cg_bonded
4881 4899 8 1.0 1.0 ; static  ; cg_bonded
4881 6846 8 1.0 1.0 ; chem  ; cg_bonded
4882 4901 1 0.135 402500.8
4883 4891 1 0.136 402500.8
4886 6850 1 0.143 267776.0
4890 4899 8 1.0 1.0 ; static  ; cg_bonded
4890 6897 8 1.0 1.0 ; chem  ; cg_bonded
4892 4900 1 0.135 402500.8
4895 6901 1 0.143 267776.0
4899 5829 8 1.0 1.0 ; chem  ; cg_bonded
4904 5833 1 0.143 267776.0
4908 4916 8 1.0 1.0 ; static  ; cg_bonded
4908 4924 8 1.0 1.0 ; static  ; cg_bonded
4909 4926 1 0.135 402500.8
4910 4917 1 0.136 402500.8
4916 4924 8 1.0 1.0 ; static  ; cg_bonded
4918 4925 1 0.135 402500.8
4924 6276 8 1.0 1.0 ; chem  ; cg_bonded
4929 6280 1 0.143 267776.0
4933 4942 8 1.0 1.0 ; static  ; cg_bonded
4933 4952 8 1.0 1.0 ; static  ; cg_bonded
4933 7207 8 1.0 1.0 ; chem  ; cg_bonded
4934 4954 1 0.135 402500.8
4935 4943 1 0.136 402500.8
4938 7211 1 0.143 267776.0
4942 4952 8 1.0 1.0 ; static  ; cg_bonded
4944 4953 1 0.135 402500.8
4960 4968 8 1.0 1.0 ; static  ; cg_bonded
4960 4976 8 1.0 1.0 ; static  ; cg_bonded
4961 4978 1 0.135 402500.8
4962 4969 1 0.136 402500.8
4968 4976 8 1.0 1.0 ; static  ; cg_bonded
4970 4977 1 0.135 402500.8
4976 12752 8 1.0 1.0 ; chem  ; cg_bonded
4981 12756 1 0.143 267776.0
4985 4994 8 1.0 1.0 ; static  ; cg_bonded
4985 5003 8 1.0 1.0 ; static  ; cg_bonded
4985 6194 8 1.0 1.0 ; chem  ; cg_bonded
4986 5005 1 0.135 402500.8
4987 4995 1 0.136 402500.8
4990 6198 1 0.143 267776.0
4994 5003 8 1.0 1.0 ; static  ; cg_bonded
4994 5411 8 1.0 1.0 ; chem  ; cg_bonded
4996 5004 1 0.135 402500.8
4999 5415 1 0.143 267776.0
5013 5022 8 1.0 1.0 ; static  ; cg_bonded
5013 5030 8 1.0 1.0 ; static  ; cg_bonded
5013 9974 8 1.0 1.0 ; chem  ; cg_bonded
5014 5032 1 0.135 402500.8
5015 5023 1 0.136 402500.8
5018 9978 1 0.143 267776.0
5022 5030 8 1.0 1.0 ; static  ; cg_bonded
5024 5031 1 0.135 402500.8
5030 10830 8 1.0 1.0 ; chem  ; cg_bonded
5035 10834 1 0.143 267776.0
5039 5047 8 1.0 1.0 ; static  ; cg_bonded
5039 5057 8 1.0 1.0 ; static  ; cg_bonded
5040 5059 1 0.135 402500.8
5041 5048 1 0.136 402500.8
5047 5057 8 1.0 1.0 ; static  ; cg_bonded
5049 5058 1 0.135 402500.8
5065 5074 8 1.0 1.0 ; static  ; cg_bonded
5065 5083 8 1.0 1.0 ; static  ; cg_bonded
5065 7526 8 1.0 1.0 ; chem  ; cg_bonded
5066 5085 1 0.135 402500.8
5067 5075 1 0.136 402500.8
5070 7530 1 0.143 267776.0
5074 5083 8 1.0 1.0 ; static  ; cg_bonded
5074 11032 8 1.0 1.0 ; chem  ; cg_bonded
5076 5084 1 0.135 402500.8
5079 11036 1 0.143 267776.0
5083 6964 8 1.0 1.0 ; chem  ; cg_bonded
5088 6968 1 0.143 267776.0
5092 5102 8 1.0 1.0 ; static  ; cg_bonded
5092 5111 8 1.0 1.0 ; static  ; cg_bonded
5093 5113 1 0.135 402500.8
5094 5103 1 0.136 402500.8
5102 5111 8 1.0 1.0 ; static  ; cg_bonded
5102 11547 8 1.0 1.0 ; chem  ; cg_bonded
5104 5112 1 0.135 402500.8
5107 11551 1 0.143 267776.0
5121 5131 8 1.0 1.0 ; static  ; cg_bonded
5121 5140 8 1.0 1.0 ; static  ; cg_bonded
5122 5142 1 0.135 402500.8
5123 5132 1 0.136 402500.8
5131 5140 8 1.0 1.0 ; static  ; cg_bonded
5131 7399 8 1.0 1.0 ; chem  ; cg_bonded
5133 5141 1 0.135 402500.8
5136 7403 1 0.143 267776.0
5140 6000 8 1.0 1.0 ; chem  ; cg_bonded
5145 6004 1 0.143 267776.0
5149 5157 8 1.0 1.0 ; static  ; cg_bonded
5149 5166 8 1.0 1.0 ; static  ; cg_bonded
5150 5168 1 0.135 402500.8
5151 5158 1 0.136 402500.8
5157 5166 8 1.0 1.0 ; static  ; cg_bonded
5157 9900 8 1.0 1.0 ; chem  ; cg_bonded
5159 5167 1 0.135 402500.8
5162 9904 1 0.143 267776.0
5166 6402 8 1.0 1.0 ; chem  ; cg_bonded
5171 6406 1 0.143 267776.0
5175 5183 8 1.0 1.0 ; static  ; cg_bonded
5175 5192 8 1.0 1.0 ; static  ; cg_bonded
5176 5194 1 0.135 402500.8
5177 5184 1 0.136 402500.8
5183 5192 8 1.0 1.0 ; static  ; cg_bonded
5183 6708 8 1.0 1.0 ; chem  ; cg_bonded
5185 5193 1 0.135 402500.8
5188 6712 1 0.143 267776.0
5192 7751 8 1.0 1.0 ; chem  ; cg_bonded
5197 7755 1 0.143 267776.0
5201 5210 8 1.0 1.0 ; static  ; cg_bonded
5201 5220 8 1.0 1.0 ; static  ; cg_bonded
5201 8545 8 1.0 1.0 ; chem  ; cg_bonded
5202 5222 1 0.135 402500.8
5203 5211 1 0.136 402500.8
5206 8549 1 0.143 267776.0
5210 5220 8 1.0 1.0 ; static  ; cg_bonded
5212 5221 1 0.135 402500.8
5220 10106 8 1.0 1.0 ; chem  ; cg_bonded
5225 10110 1 0.143 267776.0
5229 5237 8 1.0 1.0 ; static  ; cg_bonded
5229 5246 8 1.0 1.0 ; static  ; cg_bonded
5230 5248 1 0.135 402500.8
5231 5238 1 0.136 402500.8
5237 5246 8 1.0 1.0 ; static  ; cg_bonded
5237 10772 8 1.0 1.0 ; chem  ; cg_bonded
5239 5247 1 0.135 402500.8
5242 10776 1 0.143 267776.0
5254 5264 8 1.0 1.0 ; static  ; cg_bonded
5254 5273 8 1.0 1.0 ; static  ; cg_bonded
5255 5275 1 0.135 402500.8
5256 5265 1 0.136 402500.8
5264 5273 8 1.0 1.0 ; static  ; cg_bonded
5264 9229 8 1.0 1.0 ; chem  ; cg_bonded
5266 5274 1 0.135 402500.8
5269 9233 1 0.143 267776.0
5273 5577 8 1.0 1.0 ; chem  ; cg_bonded
5278 5581 1 0.143 267776.0
5282 5290 8 1.0 1.0 ; static  ; cg_bonded
5282 5299 8 1.0 1.0 ; static  ; cg_bonded
5283 5301 1 0.135 402500.8
5284 5291 1 0.136 402500.8
5290 5299 8 1.0 1.0 ; static  ; cg_bonded
5290 8917 8 1.0 1.0 ; chem  ; cg_bonded
5292 5300 1 0.135 402500.8
5295 8921 1 0.143 267776.0
5307 5315 8 1.0 1.0 ; static  ; cg_bonded
5307 5324 8 1.0 1.0 ; static  ; cg_bonded
5308 5326 1 0.135 402500.8
5309 5316 1 0.136 402500.8
5315 5324 8 1.0 1.0 ; static  ; cg_bonded
5315 11064 8 1.0 1.0 ; chem  ; cg_bonded
5317 5325 1 0.135 402500.8
5320 11068 1 0.143 267776.0
5334 5342 8 1.0 1.0 ; static  ; cg_bonded
5334 5350 8 1.0 1.0 ; static  ; cg_bonded
5335 5352 1 0.135 402500.8
5336 5343 1 0.136 402500.8
5342 5350 8 1.0 1.0 ; static  ; cg_bonded
5344 5351 1 0.135 402500.8
5358 5367 8 1.0 1.0 ; static  ; cg_bonded
5358 5375 8 1.0 1.0 ; static  ; cg_bonded
5358 9398 8 1.0 1.0 ; chem  ; cg_bonded
5359 5377 1 0.135 402500.8
5360 5368 1 0.136 402500.8
5363 9402 1 0.143 267776.0
5367 5375 8 1.0 1.0 ; static  ; cg_bonded
5369 5376 1 0.135 402500.8
5385 5395 8 1.0 1.0 ; static  ; cg_bonded
5385 5403 8 1.0 1.0 ; static  ; cg_bonded
5386 5405 1 0.135 402500.8
5387 5396 1 0.136 402500.8
5395 5403 8 1.0 1.0 ; static  ; cg_bonded
5397 5404 1 0.135 402500.8
5411 5419 8 1.0 1.0 ; static  ; cg_bonded
5411 5427 8 1.0 1.0 ; static  ; cg_bonded
5412 5429 1 0.135 402500.8
5413 5420 1 0.136 402500.8
5419 5427 8 1.0 1.0 ; static  ; cg_bonded
5421 5428 1 0.135 402500.8
5427 7903 8 1.0 1.0 ; chem  ; cg_bonded
5432 7907 1 0.143 267776.0
5436 5445 8 1.0 1.0 ; static  ; cg_bonded
5436 5454 8 1.0 1.0 ; static  ; cg_bonded
5436 11340 8 1.0 1.0 ; chem  ; cg_bonded
5437 5456 1 0.135 402500.8
5438 5446 1 0.136 402500.8
5441 11344 1 0.143 267776.0
5445 5454 8 1.0 1.0 ; static  ; cg_bonded
5445 9028 8 1.0 1.0 ; chem  ; cg_bonded
5447 5455 1 0.135 402500.8
5450 9032 1 0.143 267776.0
5454 7415 8 1.0 1.0 ; chem  ; cg_bonded
5459 7419 1 0.143 267776.0
5463 5471 8 1.0 1.0 ; static  ; cg_bonded
5463 5480 8 1.0 1.0 ; static  ; cg_bonded
5464 5482 1 0.135 402500.8
5465 5472 1 0.136 402500.8
5471 5480 8 1.0 1.0 ; static  ; cg_bonded
5471 12103 8 1.0 1.0 ; chem  ; cg_bonded
5473 5481 1 0.135 402500.8
5476 12107 1 0.143 267776.0
5480 11332 8 1.0 1.0 ; chem  ; cg_bonded
5485 11336 1 0.143 267776.0
5489 5497 8 1.0 1.0 ; static  ; cg_bonded
5489 5507 8 1.0 1.0 ; static  ; cg_bonded
5490 5509 1 0.135 402500.8
5491 5498 1 0.136 402500.8
5497 5507 8 1.0 1.0 ; static  ; cg_bonded
5499 5508 1 0.135 402500.8
5515 5523 8 1.0 1.0 ; static  ; cg_bonded
5515 5532 8 1.0 1.0 ; static  ; cg_bonded
5516 5534 1 0.135 402500.8
5517 5524 1 0.136 402500.8
5523 5532 8 1.0 1.0 ; static  ; cg_bonded
5523 7191 8 1.0 1.0 ; chem  ; cg_bonded
5525 5533 1 0.135 402500.8
5528 7195 1 0.143 267776.0
5532 12720 8 1.0 1.0 ; chem  ; cg_bonded
5537 12724 1 0.143 267776.0
5541 5549 8 1.0 1.0 ; static  ; cg_bonded
5541 5559 8 1.0 1.0 ; static  ; cg_bonded
5542 5561 1 0.135 402500.8
5543 5550 1 0.136 402500.8
5549 5559 8 1.0 1.0 ; static  ; cg_bonded
5551 5560 1 0.135 402500.8
5559 9127 8 1.0 1.0 ; chem  ; cg_bonded
5564 9131 1 0.143 267776.0
5568 5577 8 1.0 1.0 ; static  ; cg_bonded
5568 5585 8 1.0 1.0 ; static  ; cg_bonded
5568 10337 8 1.0 1.0 ; chem  ; cg_bonded
5569 5587 1 0.135 402500.8
5570 5578 1 0.136 402500.8
5573 10341 1 0.143 267776.0
5577 5585 8 1.0 1.0 ; static  ; cg_bonded
5579 5586 1 0.135 402500.8
5593 5601 8 1.0 1.0 ; static  ; cg_bonded
5593 5609 8 1.0 1.0 ; static  ; cg_bonded
5594 5611 1 0.135 402500.8
5595 5602 1 0.136 402500.8
5601 5609 8 1.0 1.0 ; static  ; cg_bonded
5603 5610 1 0.135 402500.8
5617 5626 8 1.0 1.0 ; static  ; cg_bonded
5617 5635 8 1.0 1.0 ; static  ; cg_bonded
5617 8944 8 1.0 1.0 ; chem  ; cg_bonded
5618 5637 1 0.135 402500.8
5619 5627 1 0.136 402500.8
5622 8948 1 0.143 267776.0
5626 5635 8 1.0 1.0 ; static  ; cg_bonded
5626 7391 8 1.0 1.0 ; chem  ; cg_bonded
5628 5636 1 0.135 402500.8
5631 7395 1 0.143 267776.0
5643 5652 8 1.0 1.0 ; static  ; cg_bonded
5643 5662 8 1.0 1.0 ; static  ; cg_bonded
5643 8773 8 1.0 1.0 ; chem  ; cg_bonded
5644 5664 1 0.135 402500.8
5645 5653 1 0.136 402500.8
5648 8777 1 0.143 267776.0
5652 5662 8 1.0 1.0 ; static  ; cg_bonded
5654 5663 1 0.135 402500.8
5670 5679 8 1.0 1.0 ; static  ; cg_bonded
5670 5688 8 1.0 1.0 ; static  ; cg_bonded
5670 12127 8 1.0 1.0 ; chem  ; cg_bonded
5671 5690 1 0.135 402500.8
5672 5680 1 0.136 402500.8
5675 12131 1 0.143 267776.0
5679 5688 8 1.0 1.0 ; static  ; cg_bonded
5679 10387 8 1.0 1.0 ; chem  ; cg_bonded
5681 5689 1 0.135 402500.8
5684 10391 1 0.143 267776.0
5688 6131 8 1.0 1.0 ; chem  ; cg_bonded
5693 6135 1 0.143 267776.0
5697 5706 8 1.0 1.0 ; static  ; cg_bonded
5697 5714 8 1.0 1.0 ; static  ; cg_bonded
5697 12712 8 1.0 1.0 ; chem  ; cg_bonded
5698 5716 1 0.135 402500.8
5699 5707 1 0.136 402500.8
5702 12716 1 0.143 267776.0
5706 5714 8 1.0 1.0 ; static  ; cg_bonded
5708 5715 1 0.135 402500.8
5722 5732 8 1.0 1.0 ; static  ; cg_bonded
5722 5741 8 1.0 1.0 ; static  ; cg_bonded
5723 5743 1 0.135 402500.8
5724 5733 1 0.136 402500.8
5732 5741 8 1.0 1.0 ; static  ; cg_bonded
5732 6734 8 1.0 1.0 ; chem  ; cg_bonded
5734 5742 1 0.135 402500.8
5737 6738 1 0.143 267776.0
5741 6742 8 1.0 1.0 ; chem  ; cg_bonded
5746 6746 1 0.143 267776.0
5750 5759 8 1.0 1.0 ; static  ; cg_bonded
5750 5768 8 1.0 1.0 ; static  ; cg_bonded
5750 9652 8 1.0 1.0 ; chem  ; cg_bonded
5751 5770 1 0.135 402500.8
5752 5760 1 0.136 402500.8
5755 9656 1 0.143 267776.0
5759 5768 8 1.0 1.0 ; static  ; cg_bonded
5759 11356 8 1.0 1.0 ; chem  ; cg_bonded
5761 5769 1 0.135 402500.8
5764 11360 1 0.143 267776.0
5768 9045 8 1.0 1.0 ; chem  ; cg_bonded
5773 9049 1 0.143 267776.0
5777 5786 8 1.0 1.0 ; static  ; cg_bonded
5777 5795 8 1.0 1.0 ; static  ; cg_bonded
5777 10990 8 1.0 1.0 ; chem  ; cg_bonded
5778 5797 1 0.135 402500.8
5779 5787 1 0.136 402500.8
5782 10994 1 0.143 267776.0
5786 5795 8 1.0 1.0 ; static  ; cg_bonded
5786 12175 8 1.0 1.0 ; chem  ; cg_bonded
5788 5796 1 0.135 402500.8
5791 12179 1 0.143 267776.0
5803 5812 8 1.0 1.0 ; static  ; cg_bonded
5803 5821 8 1.0 1.0 ; static  ; cg_bonded
5803 10613 8 1.0 1.0 ; chem  ; cg_bonded
5804 5823 1 0.135 402500.8
5805 5813 1 0.136 402500.8
5808 10617 1 0.143 267776.0
5812 5821 8 1.0 1.0 ; static  ; cg_bonded
5812 6575 8 1.0 1.0 ; chem  ; cg_bonded
5814 5822 1 0.135 402500.8
5817 6579 1 0.143 267776.0
5829 5837 8 1.0 1.0 ; static  ; cg_bonded
5829 5845 8 1.0 1.0 ; static  ; cg_bonded
5830 5847 1 0.135 402500.8
5831 5838 1 0.136 402500.8
5837 5845 8 1.0 1.0 ; static  ; cg_bonded
5839 5846 1 0.135 402500.8
5845 6913 8 1.0 1.0 ; chem  ; cg_bonded
5850 6917 1 0.143 267776.0
5854 5862 8 1.0 1.0 ; static  ; cg_bonded
5854 5871 8 1.0 1.0 ; static  ; cg_bonded
5855 5873 1 0.135 402500.8
5856 5863 1 0.136 402500.8
5862 5871 8 1.0 1.0 ; static  ; cg_bonded
5862 9430 8 1.0 1.0 ; chem  ; cg_bonded
5864 5872 1 0.135 402500.8
5867 9434 1 0.143 267776.0
5879 5888 8 1.0 1.0 ; static  ; cg_bonded
5879 5896 8 1.0 1.0 ; static  ; cg_bonded
5879 7241 8 1.0 1.0 ; chem  ; cg_bonded
5880 5898 1 0.135 402500.8
5881 5889 1 0.136 402500.8
5884 7245 1 0.143 267776.0
5888 5896 8 1.0 1.0 ; static  ; cg_bonded
5890 5897 1 0.135 402500.8
5904 5913 8 1.0 1.0 ; static  ; cg_bonded
5904 5922 8 1.0 1.0 ; static  ; cg_bonded
5904 10256 8 1.0 1.0 ; chem  ; cg_bonded
5905 5924 1 0.135 402500.8
5906 5914 1 0.136 402500.8
5909 10260 1 0.143 267776.0
5913 5922 8 1.0 1.0 ; static  ; cg_bonded
5913 11622 8 1.0 1.0 ; chem  ; cg_bonded
5915 5923 1 0.135 402500.8
5918 11626 1 0.143 267776.0
5922 10313 8 1.0 1.0 ; chem  ; cg_bonded
5927 10317 1 0.143 267776.0
5931 5939 8 1.0 1.0 ; static  ; cg_bonded
5931 5948 8 1.0 1.0 ; static  ; cg_bonded
5932 5950 1 0.135 402500.8
5933 5940 1 0.136 402500.8
5939 5948 8 1.0 1.0 ; static  ; cg_bonded
5939 6989 8 1.0 1.0 ; chem  ; cg_bonded
5941 5949 1 0.135 402500.8
5944 6993 1 0.143 267776.0
5956 5965 8 1.0 1.0 ; static  ; cg_bonded
5956 5973 8 1.0 1.0 ; static  ; cg_bonded
5956 6249 8 1.0 1.0 ; chem  ; cg_bonded
5957 5975 1 0.135 402500.8
5958 5966 1 0.136 402500.8
5961 6253 1 0.143 267776.0
5965 5973 8 1.0 1.0 ; static  ; cg_bonded
5967 5974 1 0.135 402500.8
5973 10345 8 1.0 1.0 ; chem  ; cg_bonded
5978 10349 1 0.143 267776.0
5982 5991 8 1.0 1.0 ; static  ; cg_bonded
5982 6000 8 1.0 1.0 ; static  ; cg_bonded
5982 7836 8 1.0 1.0 ; chem  ; cg_bonded
5983 6002 1 0.135 402500.8
5984 5992 1 0.136 402500.8
5987 7840 1 0.143 267776.0
5991 6000 8 1.0 1.0 ; static  ; cg_bonded
5991 8435 8 1.0 1.0 ; chem  ; cg_bonded
5993 6001 1 0.135 402500.8
5996 8439 1 0.143 267776.0
6008 6018 8 1.0 1.0 ; static  ; cg_bonded
6008 6026 8 1.0 1.0 ; static  ; cg_bonded
6009 6028 1 0.135 402500.8
6010 6019 1 0.136 402500.8
6018 6026 8 1.0 1.0 ; static  ; cg_bonded
6020 6027 1 0.135 402500.8
6034 6042 8 1.0 1.0 ; static  ; cg_bonded
6034 6051 8 1.0 1.0 ; static  ; cg_bonded
6035 6053 1 0.135 402500.8
6036 6043 1 0.136 402500.8
6042 6051 8 1.0 1.0 ; static  ; cg_bonded
6042 7407 8 1.0 1.0 ; chem  ; cg_bonded
6044 6052 1 0.135 402500.8
6047 7411 1 0.143 267776.0
6061 6069 8 1.0 1.0 ; static  ; cg_bonded
6061 6078 8 1.0 1.0 ; static  ; cg_bonded
6062 6080 1 0.135 402500.8
6063 6070 1 0.136 402500.8
6069 6078 8 1.0 1.0 ; static  ; cg_bonded
6069 6838 8 1.0 1.0 ; chem  ; cg_bonded
6071 6079 1 0.135 402500.8
6074 6842 1 0.143 267776.0
6078 11453 8 1.0 1.0 ; chem  ; cg_bonded
6083 11457 1 0.143 267776.0
6087 6096 8 1.0 1.0 ; static  ; cg_bonded
6087 6105 8 1.0 1.0 ; static  ; cg_bonded
6087 8079 8 1.0 1.0 ; chem  ; cg_bonded
6088 6107 1 0.135 402500.8
6089 6097 1 0.136 402500.8
6092 8083 1 0.143 267776.0
6096 6105 8 1.0 1.0 ; static  ; cg_bonded
6096 11413 8 1.0 1.0 ; chem  ; cg_bonded
6098 6106 1 0.135 402500.8
6101 11417 1 0.143 267776.0
6113 6122 8 1.0 1.0 ; static  ; cg_bonded
6113 6131 8 1.0 1.0 ; static  ; cg_bonded
6113 10405 8 1.0 1.0 ; chem  ; cg_bonded
6114 6133 1 0.135 402500.8
6115 6123 1 0.136 402500.8
6118 10409 1 0.143 267776.0
6122 6131 8 1.0 1.0 ; static  ; cg_bonded
6122 12119 8 1.0 1.0 ; chem  ; cg_bonded
6124 6132 1 0.135 402500.8
6127 12123 1 0.143 267776.0
6139 6148 8 1.0 1.0 ; static  ; cg_bonded
6139 6157 8 1.0 1.0 ; static  ; cg_bonded
6139 12638 8 1.0 1.0 ; chem  ; cg_bonded
6140 6159 1 0.135 402500.8
6141 6149 1 0.136 402500.8
6144 12642 1 0.143 267776.0
6148 6157 8 1.0 1.0 ; static  ; cg_bonded
6148 10147 8 1.0 1.0 ; chem  ; cg_bonded
6150 6158 1 0.135 402500.8
6153 10151 1 0.143 267776.0
6157 9172 8 1.0 1.0 ; chem  ; cg_bonded
6162 9176 1 0.143 267776.0
6166 6176 8 1.0 1.0 ; static  ; cg_bonded
6166 6185 8 1.0 1.0 ; static  ; cg_bonded
6167 6187 1 0.135 402500.8
6168 6177 1 0.136 402500.8
6176 6185 8 1.0 1.0 ; static  ; cg_bonded
6176 8358 8 1.0 1.0 ; chem  ; cg_bonded
6178 6186 1 0.135 402500.8
6181 8362 1 0.143 267776.0
6185 8284 8 1.0 1.0 ; chem  ; cg_bonded
6190 8288 1 0.143 267776.0
6194 6202 8 1.0 1.0 ; static  ; cg_bonded
6194 6211 8 1.0 1.0 ; static  ; cg_bonded
6195 6213 1 0.135 402500.8
6196 6203 1 0.136 402500.8
6202 6211 8 1.0 1.0 ; static  ; cg_bonded
6202 9355 8 1.0 1.0 ; chem  ; cg_bonded
6204 6212 1 0.135 402500.8
6207 9359 1 0.143 267776.0
6211 11080 8 1.0 1.0 ; chem  ; cg_bonded
6216 11084 1 0.143 267776.0
6220 6230 8 1.0 1.0 ; static  ; cg_bonded
6220 6239 8 1.0 1.0 ; static  ; cg_bonded
6221 6241 1 0.135 402500.8
6222 6231 1 0.136 402500.8
6230 6239 8 1.0 1.0 ; static  ; cg_bonded
6230 10537 8 1.0 1.0 ; chem  ; cg_bonded
6232 6240 1 0.135 402500.8
6235 10541 1 0.143 267776.0
6249 6257 8 1.0 1.0 ; static  ; cg_bonded
6249 6267 8 1.0 1.0 ; static  ; cg_bonded
6250 6269 1 0.135 402500.8
6251 6258 1 0.136 402500.8
6257 6267 8 1.0 1.0 ; static  ; cg_bonded
6259 6268 1 0.135 402500.8
6267 11154 8 1.0 1.0 ; chem  ; cg_bonded
6272 11158 1 0.143 267776.0
6276 6284 8 1.0 1.0 ; static  ; cg_bonded
6276 6293 8 1.0 1.0 ; static  ; cg_bonded
6277 6295 1 0.135 402500.8
6278 6285 1 0.136 402500.8
6284 6293 8 1.0 1.0 ; static  ; cg_bonded
6284 11580 8 1.0 1.0 ; chem  ; cg_bonded
6286 6294 1 0.135 402500.8
6289 11584 1 0.143 267776.0
6301 6311 8 1.0 1.0 ; static  ; cg_bonded
6301 6320 8 1.0 1.0 ; static  ; cg_bonded
6302 6322 1 0.135 402500.8
6303 6312 1 0.136 402500.8
6311 6320 8 1.0 1.0 ; static  ; cg_bonded
6311 8342 8 1.0 1.0 ; chem  ; cg_bonded
6313 6321 1 0.135 402500.8
6316 8346 1 0.143 267776.0
6330 6340 8 1.0 1.0 ; static  ; cg_bonded
6330 6349 8 1.0 1.0 ; static  ; cg_bonded
6331 6351 1 0.135 402500.8
6332 6341 1 0.136 402500.8
6340 6349 8 1.0 1.0 ; static  ; cg_bonded
6340 11429 8 1.0 1.0 ; chem  ; cg_bonded
6342 6350 1 0.135 402500.8
6345 11433 1 0.143 267776.0
6349 10074 8 1.0 1.0 ; chem  ; cg_bonded
6354 10078 1 0.143 267776.0
6358 6366 8 1.0 1.0 ; static  ; cg_bonded
6358 6374 8 1.0 1.0 ; static  ; cg_bonded
6359 6376 1 0.135 402500.8
6360 6367 1 0.136 402500.8
6366 6374 8 1.0 1.0 ; static  ; cg_bonded
6368 6375 1 0.135 402500.8
6374 9523 8 1.0 1.0 ; chem  ; cg_bonded
6379 9527 1 0.143 267776.0
6383 6393 8 1.0 1.0 ; static  ; cg_bonded
6383 6402 8 1.0 1.0 ; static  ; cg_bonded
6384 6404 1 0.135 402500.8
6385 6394 1 0.136 402500.8
6393 6402 8 1.0 1.0 ; static  ; cg_bonded
6393 11316 8 1.0 1.0 ; chem  ; cg_bonded
6395 6403 1 0.135 402500.8
6398 11320 1 0.143 267776.0
6410 6418 8 1.0 1.0 ; static  ; cg_bonded
6410 6427 8 1.0 1.0 ; static  ; cg_bonded
6411 6429 1 0.135 402500.8
6412 6419 1 0.136 402500.8
6418 6427 8 1.0 1.0 ; static  ; cg_bonded
6418 7682 8 1.0 1.0 ; chem  ; cg_bonded
6420 6428 1 0.135 402500.8
6423 7686 1 0.143 267776.0
6427 12928 8 1.0 1.0 ; chem  ; cg_bonded
6432 12932 1 0.143 267776.0
6436 6444 8 1.0 1.0 ; static  ; cg_bonded
6436 6452 8 1.0 1.0 ; static  ; cg_bonded
6437 6454 1 0.135 402500.8
6438 6445 1 0.136 402500.8
6444 6452 8 1.0 1.0 ; static  ; cg_bonded
6446 6453 1 0.135 402500.8
6452 9991 8 1.0 1.0 ; chem  ; cg_bonded
6457 9995 1 0.143 267776.0
6461 6471 8 1.0 1.0 ; static  ; cg_bonded
6461 6481 8 1.0 1.0 ; static  ; cg_bonded
6462 6483 1 0.135 402500.8
6463 6472 1 0.136 402500.8
6471 6481 8 1.0 1.0 ; static  ; cg_bonded
6473 6482 1 0.135 402500.8
6481 11646 8 1.0 1.0 ; chem  ; cg_bonded
6486 11650 1 0.143 267776.0
6490 6498 8 1.0 1.0 ; static  ; cg_bonded
6490 6507 8 1.0 1.0 ; static  ; cg_bonded
6491 6509 1 0.135 402500.8
6492 6499 1 0.136 402500.8
6498 6507 8 1.0 1.0 ; static  ; cg_bonded
6498 10756 8 1.0 1.0 ; chem  ; cg_bonded
6500 6508 1 0.135 402500.8
6503 10760 1 0.143 267776.0
6507 10573 8 1.0 1.0 ; chem  ; cg_bonded
6512 10577 1 0.143 267776.0
6516 6524 8 1.0 1.0 ; static  ; cg_bonded
6516 6532 8 1.0 1.0 ; static  ; cg_bonded
6517 6534 1 0.135 402500.8
6518 6525 1 0.136 402500.8
6524 6532 8 1.0 1.0 ; static  ; cg_bonded
6526 6533 1 0.135 402500.8
6532 8310 8 1.0 1.0 ; chem  ; cg_bonded
6537 8314 1 0.143 267776.0
6541 6549 8 1.0 1.0 ; static  ; cg_bonded
6541 6557 8 1.0 1.0 ; static  ; cg_bonded
6542 6559 1 0.135 402500.8
6543 6550 1 0.136 402500.8
6549 6557 8 1.0 1.0 ; static  ; cg_bonded
6551 6558 1 0.135 402500.8
6557 12540 8 1.0 1.0 ; chem  ; cg_bonded
6562 12544 1 0.143 267776.0
6566 6575 8 1.0 1.0 ; static  ; cg_bonded
6566 6583 8 1.0 1.0 ; static  ; cg_bonded
6566 11654 8 1.0 1.0 ; chem  ; cg_bonded
6567 6585 1 0.135 402500.8
6568 6576 1 0.136 402500.8
6571 11658 1 0.143 267776.0
6575 6583 8 1.0 1.0 ; static  ; cg_bonded
6577 6584 1 0.135 402500.8
6591 6600 8 1.0 1.0 ; static  ; cg_bonded
6591 6608 8 1.0 1.0 ; static  ; cg_bonded
6591 10605 8 1.0 1.0 ; chem  ; cg_bonded
6592 6610 1 0.135 402500.8
6593 6601 1 0.136 402500.8
6596 10609 1 0.143 267776.0
6600 6608 8 1.0 1.0 ; static  ; cg_bonded
6602 6609 1 0.135 402500.8
6616 6624 8 1.0 1.0 ; static  ; cg_bonded
6616 6633 8 1.0 1.0 ; static  ; cg_bonded
6617 6635 1 0.135 402500.8
6618 6625 1 0.136 402500.8
6624 6633 8 1.0 1.0 ; static  ; cg_bonded
6624 6657 8 1.0 1.0 ; chem  ; cg_bonded
6626 6634 1 0.135 402500.8
6629 6661 1 0.143 267776.0
6641 6649 8 1.0 1.0 ; static  ; cg_bonded
6641 6657 8 1.0 1.0 ; static  ; cg_bonded
6642 6659 1 0.135 402500.8
6643 6650 1 0.136 402500.8
6649 6657 8 1.0 1.0 ; static  ; cg_bonded
6651 6658 1 0.135 402500.8
6665 6673 8 1.0 1.0 ; static  ; cg_bonded
6665 6681 8 1.0 1.0 ; static  ; cg_bonded
6666 6683 1 0.135 402500.8
6667 6674 1 0.136 402500.8
6673 6681 8 1.0 1.0 ; static  ; cg_bonded
6675 6682 1 0.135 402500.8
6681 12294 8 1.0 1.0 ; chem  ; cg_bonded
6686 12298 1 0.143 267776.0
6690 6699 8 1.0 1.0 ; static  ; cg_bonded
6690 6708 8 1.0 1.0 ; static  ; cg_bonded
6690 8469 8 1.0 1.0 ; chem  ; cg_bonded
6691 6710 1 0.135 402500.8
6692 6700 1 0.136 402500.8
6695 8473 1 0.143 267776.0
6699 6708 8 1.0 1.0 ; static  ; cg_bonded
6699 10057 8 1.0 1.0 ; chem  ; cg_bonded
6701 6709 1 0.135 402500.8
6704 10061 1 0.143 267776.0
6716 6725 8 1.0 1.0 ; static  ; cg_bonded
6716 6734 8 1.0 1.0 ; static  ; cg_bonded
6716 11461 8 1.0 1.0 ; chem  ; cg_bonded
6717 6736 1 0.135 402500.8
6718 6726 1 0.136 402500.8
6721 11465 1 0.143 267776.0
6725 6734 8 1.0 1.0 ; static  ; cg_bonded
6725 8662 8 1.0 1.0 ; chem  ; cg_bonded
6727 6735 1 0.135 402500.8
6730 8666 1 0.143 267776.0
6742 6750 8 1.0 1.0 ; static  ; cg_bonded
6742 6759 8 1.0 1.0 ; static  ; cg_bonded
6743 6761 1 0.135 402500.8
6744 6751 1 0.136 402500.8
6750 6759 8 1.0 1.0 ; static  ; cg_bonded
6750 6854 8 1.0 1.0 ; chem  ; cg_bonded
6752 6760 1 0.135 402500.8
6755 6858 1 0.143 267776.0
6759 8687 8 1.0 1.0 ; chem  ; cg_bonded
6764 8691 1 0.143 267776.0
6768 6777 8 1.0 1.0 ; static  ; cg_bonded
6768 6785 8 1.0 1.0 ; static  ; cg_bonded
6768 9085 8 1.0 1.0 ; chem  ; cg_bonded
6769 6787 1 0.135 402500.8
6770 6778 1 0.136 402500.8
6773 9089 1 0.143 267776.0
6777 6785 8 1.0 1.0 ; static  ; cg_bonded
6779 6786 1 0.135 402500.8
6793 6802 8 1.0 1.0 ; static  ; cg_bonded
6793 6811 8 1.0 1.0 ; static  ; cg_bonded
6793 11630 8 1.0 1.0 ; chem  ; cg_bonded
6794 6813 1 0.135 402500.8
6795 6803 1 0.136 402500.8
6798 11634 1 0.143 267776.0
6802 6811 8 1.0 1.0 ; static  ; cg_bonded
6802 7597 8 1.0 1.0 ; chem  ; cg_bonded
6804 6812 1 0.135 402500.8
6807 7601 1 0.143 267776.0
6819 6828 8 1.0 1.0 ; static  ; cg_bonded
6819 6838 8 1.0 1.0 ; static  ; cg_bonded
6819 11072 8 1.0 1.0 ; chem  ; cg_bonded
6820 6840 1 0.135 402500.8
6821 6829 1 0.136 402500.8
6824 11076 1 0.143 267776.0
6828 6838 8 1.0 1.0 ; static  ; cg_bonded
6830 6839 1 0.135 402500.8
6846 6854 8 1.0 1.0 ; static  ; cg_bonded
6846 6862 8 1.0 1.0 ; static  ; cg_bonded
6847 6864 1 0.135 402500.8
6848 6855 1 0.136 402500.8
6854 6862 8 1.0 1.0 ; static  ; cg_bonded
6856 6863 1 0.135 402500.8
6870 6879 8 1.0 1.0 ; static  ; cg_bonded
6870 6888 8 1.0 1.0 ; static  ; cg_bonded
6870 8654 8 1.0 1.0 ; chem  ; cg_bonded
6871 6890 1 0.135 402500.8
6872 6880 1 0.136 402500.8
6875 8658 1 0.143 267776.0
6879 6888 8 1.0 1.0 ; static  ; cg_bonded
6879 7862 8 1.0 1.0 ; chem  ; cg_bonded
6881 6889 1 0.135 402500.8
6884 7866 1 0.143 267776.0
6888 9884 8 1.0 1.0 ; chem  ; cg_bonded
6893 9888 1 0.143 267776.0
6897 6905 8 1.0 1.0 ; static  ; cg_bonded
6897 6913 8 1.0 1.0 ; static  ; cg_bonded
6898 6915 1 0.135 402500.8
6899 6906 1 0.136 402500.8
6905 6913 8 1.0 1.0 ; static  ; cg_bonded
6907 6914 1 0.135 402500.8
6921 6930 8 1.0 1.0 ; static  ; cg_bonded
6921 6938 8 1.0 1.0 ; static  ; cg_bonded
6921 8579 8 1.0 1.0 ; chem  ; cg_bonded
6922 6940 1 0.135 402500.8
6923 6931 1 0.136 402500.8
6926 8583 1 0.143 267776.0
6930 6938 8 1.0 1.0 ; static  ; cg_bonded
6932 6939 1 0.135 402500.8
6938 8721 8 1.0 1.0 ; chem  ; cg_bonded
6943 8725 1 0.143 267776.0
6947 6956 8 1.0 1.0 ; static  ; cg_bonded
6947 6964 8 1.0 1.0 ; static  ; cg_bonded
6947 8334 8 1.0 1.0 ; chem  ; cg_bonded
6948 6966 1 0.135 402500.8
6949 6957 1 0.136 402500.8
6952 8338 1 0.143 267776.0
6956 6964 8 1.0 1.0 ; static  ; cg_bonded
6958 6965 1 0.135 402500.8
6972 6981 8 1.0 1.0 ; static  ; cg_bonded
6972 6989 8 1.0 1.0 ; static  ; cg_bonded
6972 10732 8 1.0 1.0 ; chem  ; cg_bonded
6973 6991 1 0.135 402500.8
6974 6982 1 0.136 402500.8
6977 10736 1 0.143 267776.0
6981 6989 8 1.0 1.0 ; static  ; cg_bonded
6983 6990 1 0.135 402500.8
6997 7006 8 1.0 1.0 ; static  ; cg_bonded
6997 7016 8 1.0 1.0 ; static  ; cg_bonded
6997 10329 8 1.0 1.0 ; chem  ; cg_bonded
6998 7018 1 0.135 402500.8
6999 7007 1 0.136 402500.8
7002 10333 1 0.143 267776.0
7006 7016 8 1.0 1.0 ; static  ; cg_bonded
7008 7017 1 0.135 402500.8
7016 12342 8 1.0 1.0 ; chem  ; cg_bonded
7021 12346 1 0.143 267776.0
7025 7034 8 1.0 1.0 ; static  ; cg_bonded
7025 7043 8 1.0 1.0 ; static  ; cg_bonded
7025 8790 8 1.0 1.0 ; chem  ; cg_bonded
7026 7045 1 0.135 402500.8
7027 7035 1 0.136 402500.8
7030 8794 1 0.143 267776.0
7034 7043 8 1.0 1.0 ; static  ; cg_bonded
7034 11614 8 1.0 1.0 ; chem  ; cg_bonded
7036 7044 1 0.135 402500.8
7039 11618 1 0.143 267776.0
7053 7061 8 1.0 1.0 ; static  ; cg_bonded
7053 7069 8 1.0 1.0 ; static  ; cg_bonded
7054 7071 1 0.135 402500.8
7055 7062 1 0.136 402500.8
7061 7069 8 1.0 1.0 ; static  ; cg_bonded
7063 7070 1 0.135 402500.8
7077 7085 8 1.0 1.0 ; static  ; cg_bonded
7077 7095 8 1.0 1.0 ; static  ; cg_bonded
7078 7097 1 0.135 402500.8
7079 7086 1 0.136 402500.8
7085 7095 8 1.0 1.0 ; static  ; cg_bonded
7087 7096 1 0.135 402500.8
7095 10982 8 1.0 1.0 ; chem  ; cg_bonded
7100 10986 1 0.143 267776.0
7104 7113 8 1.0 1.0 ; static  ; cg_bonded
7104 7121 8 1.0 1.0 ; static  ; cg_bonded
7104 10740 8 1.0 1.0 ; chem  ; cg_bonded
7105 7123 1 0.135 402500.8
7106 7114 1 0.136 402500.8
7109 10744 1 0.143 267776.0
7113 7121 8 1.0 1.0 ; static  ; cg_bonded
7115 7122 1 0.135 402500.8
7121 11292 8 1.0 1.0 ; chem  ; cg_bonded
7126 11296 1 0.143 267776.0
7130 7138 8 1.0 1.0 ; static  ; cg_bonded
7130 7146 8 1.0 1.0 ; static  ; cg_bonded
7131 7148 1 0.135 402500.8
7132 7139 1 0.136 402500.8
7138 7146 8 1.0 1.0 ; static  ; cg_bonded
7140 7147 1 0.135 402500.8
7154 7163 8 1.0 1.0 ; static  ; cg_bonded
7154 7172 8 1.0 1.0 ; static  ; cg_bonded
7154 12630 8 1.0 1.0 ; chem  ; cg_bonded
7155 7174 1 0.135 402500.8
7156 7164 1 0.136 402500.8
7159 12634 1 0.143 267776.0
7163 7172 8 1.0 1.0 ; static  ; cg_bonded
7163 12776 8 1.0 1.0 ; chem  ; cg_bonded
7165 7173 1 0.135 402500.8
7168 12780 1 0.143 267776.0
7172 7929 8 1.0 1.0 ; chem  ; cg_bonded
7177 7933 1 0.143 267776.0
7181 7191 8 1.0 1.0 ; static  ; cg_bonded
7181 7199 8 1.0 1.0 ; static  ; cg_bonded
7182 7201 1 0.135 402500.8
7183 7192 1 0.136 402500.8
7191 7199 8 1.0 1.0 ; static  ; cg_bonded
7193 7200 1 0.135 402500.8
7207 7215 8 1.0 1.0 ; static  ; cg_bonded
7207 7224 8 1.0 1.0 ; static  ; cg_bonded
7208 7226 1 0.135 402500.8
7209 7216 1 0.136 402500.8
7215 7224 8 1.0 1.0 ; static  ; cg_bonded
7215 10123 8 1.0 1.0 ; chem  ; cg_bonded
7217 7225 1 0.135 402500.8
7220 10127 1 0.143 267776.0
7224 10655 8 1.0 1.0 ; chem  ; cg_bonded
7229 10659 1 0.143 267776.0
7233 7241 8 1.0 1.0 ; static  ; cg_bonded
7233 7249 8 1.0 1.0 ; static  ; cg_bonded
7234 7251 1 0.135 402500.8
7235 7242 1 0.136 402500.8
7241 7249 8 1.0 1.0 ; static  ; cg_bonded
7243 7250 1 0.135 402500.8
7259 7267 8 1.0 1.0 ; static  ; cg_bonded
7259 7275 8 1.0 1.0 ; static  ; cg_bonded
7260 7277 1 0.135 402500.8
7261 7268 1 0.136 402500.8
7267 7275 8 1.0 1.0 ; static  ; cg_bonded
7269 7276 1 0.135 402500.8
7275 11495 8 1.0 1.0 ; chem  ; cg_bonded
7280 11499 1 0.143 267776.0
7284 7292 8 1.0 1.0 ; static  ; cg_bonded
7284 7302 8 1.0 1.0 ; static  ; cg_bonded
7285 7304 1 0.135 402500.8
7286 7293 1 0.136 402500.8
7292 7302 8 1.0 1.0 ; static  ; cg_bonded
7294 7303 1 0.135 402500.8
7302 9012 8 1.0 1.0 ; chem  ; cg_bonded
7307 9016 1 0.143 267776.0
7311 7320 8 1.0 1.0 ; static  ; cg_bonded
7311 7329 8 1.0 1.0 ; static  ; cg_bonded
7311 8511 8 1.0 1.0 ; chem  ; cg_bonded
7312 7331 1 0.135 402500.8
7313 7321 1 0.136 402500.8
7316 8515 1 0.143 267776.0
7320 7329 8 1.0 1.0 ; static  ; cg_bonded
7320 8832 8 1.0 1.0 ; chem  ; cg_bonded
7322 7330 1 0.135 402500.8
7325 8836 1 0.143 267776.0
7339 7347 8 1.0 1.0 ; static  ; cg_bonded
7339 7355 8 1.0 1.0 ; static  ; cg_bonded
7340 7357 1 0.135 402500.8
7341 7348 1 0.136 402500.8
7347 7355 8 1.0 1.0 ; static  ; cg_bonded
7349 7356 1 0.135 402500.8
7363 7372 8 1.0 1.0 ; static  ; cg_bonded
7363 7382 8 1.0 1.0 ; static  ; cg_bonded
7363 12662 8 1.0 1.0 ; chem  ; cg_bonded
7364 7384 1 0.135 402500.8
7365 7373 1 0.136 402500.8
7368 12666 1 0.143 267776.0
7372 7382 8 1.0 1.0 ; static  ; cg_bonded
7374 7383 1 0.135 402500.8
7382 11995 8 1.0 1.0 ; chem  ; cg_bonded
7387 11999 1 0.143 267776.0
7391 7399 8 1.0 1.0 ; static  ; cg_bonded
7391 7407 8 1.0 1.0 ; static  ; cg_bonded
7392 7409 1 0.135 402500.8
7393 7400 1 0.136 402500.8
7399 7407 8 1.0 1.0 ; static  ; cg_bonded
7401 7408 1 0.135 402500.8
7415 7423 8 1.0 1.0 ; static  ; cg_bonded
7415 7431 8 1.0 1.0 ; static  ; cg_bonded
7416 7433 1 0.135 402500.8
7417 7424 1 0.136 402500.8
7423 7431 8 1.0 1.0 ; static  ; cg_bonded
7425 7432 1 0.135 402500.8
7439 7447 8 1.0 1.0 ; static  ; cg_bonded
7439 7456 8 1.0 1.0 ; static  ; cg_bonded
7440 7458 1 0.135 402500.8
7441 7448 1 0.136 402500.8
7447 7456 8 1.0 1.0 ; static  ; cg_bonded
7447 10205 8 1.0 1.0 ; chem  ; cg_bonded
7449 7457 1 0.135 402500.8
7452 10209 1 0.143 267776.0
7456 11259 8 1.0 1.0 ; chem  ; cg_bonded
7461 11263 1 0.143 267776.0
7465 7473 8 1.0 1.0 ; static  ; cg_bonded
7465 7481 8 1.0 1.0 ; static  ; cg_bonded
7466 7483 1 0.135 402500.8
7467 7474 1 0.136 402500.8
7473 7481 8 1.0 1.0 ; static  ; cg_bonded
7475 7482 1 0.135 402500.8
7491 7500 8 1.0 1.0 ; static  ; cg_bonded
7491 7508 8 1.0 1.0 ; static  ; cg_bonded
7491 8638 8 1.0 1.0 ; chem  ; cg_bonded
7492 7510 1 0.135 402500.8
7493 7501 1 0.136 402500.8
7496 8642 1 0.143 267776.0
7500 7508 8 1.0 1.0 ; static  ; cg_bonded
7502 7509 1 0.135 402500.8
7508 9540 8 1.0 1.0 ; chem  ; cg_bonded
7513 9544 1 0.143 267776.0
7517 7526 8 1.0 1.0 ; static  ; cg_bonded
7517 7534 8 1.0 1.0 ; static  ; cg_bonded
7517 11804 8 1.0 1.0 ; chem  ; cg_bonded
7518 7536 1 0.135 402500.8
7519 7527 1 0.136 402500.8
7522 11808 1 0.143 267776.0
7526 7534 8 1.0 1.0 ; static  ; cg_bonded
7528 7535 1 0.135 402500.8
7534 11015 8 1.0 1.0 ; chem  ; cg_bonded
7539 11019 1 0.143 267776.0
7543 7551 8 1.0 1.0 ; static  ; cg_bonded
7543 7560 8 1.0 1.0 ; static  ; cg_bonded
7544 7562 1 0.135 402500.8
7545 7552 1 0.136 402500.8
7551 7560 8 1.0 1.0 ; static  ; cg_bonded
7551 9942 8 1.0 1.0 ; chem  ; cg_bonded
7553 7561 1 0.135 402500.8
7556 9946 1 0.143 267776.0
7560 12936 8 1.0 1.0 ; chem  ; cg_bonded
7565 12940 1 0.143 267776.0
7569 7578 8 1.0 1.0 ; static  ; cg_bonded
7569 7587 8 1.0 1.0 ; static  ; cg_bonded
7569 8173 8 1.0 1.0 ; chem  ; cg_bonded
7570 7589 1 0.135 402500.8
7571 7579 1 0.136 402500.8
7574 8177 1 0.143 267776.0
7578 7587 8 1.0 1.0 ; static  ; cg_bonded
7578 11251 8 1.0 1.0 ; chem  ; cg_bonded
7580 7588 1 0.135 402500.8
7583 11255 1 0.143 267776.0
7597 7605 8 1.0 1.0 ; static  ; cg_bonded
7597 7613 8 1.0 1.0 ; static  ; cg_bonded
7598 7615 1 0.135 402500.8
7599 7606 1 0.136 402500.8
7605 7613 8 1.0 1.0 ; static  ; cg_bonded
7607 7614 1 0.135 402500.8
7621 7631 8 1.0 1.0 ; static  ; cg_bonded
7621 7640 8 1.0 1.0 ; static  ; cg_bonded
7622 7642 1 0.135 402500.8
7623 7632 1 0.136 402500.8
7631 7640 8 1.0 1.0 ; static  ; cg_bonded
7631 12728 8 1.0 1.0 ; chem  ; cg_bonded
7633 7641 1 0.135 402500.8
7636 12732 1 0.143 267776.0
7640 12878 8 1.0 1.0 ; chem  ; cg_bonded
7645 12882 1 0.143 267776.0
7649 7657 8 1.0 1.0 ; static  ; cg_bonded
7649 7665 8 1.0 1.0 ; static  ; cg_bonded
7650 7667 1 0.135 402500.8
7651 7658 1 0.136 402500.8
7657 7665 8 1.0 1.0 ; static  ; cg_bonded
7659 7666 1 0.135 402500.8
7665 11739 8 1.0 1.0 ; chem  ; cg_bonded
7670 11743 1 0.143 267776.0
7674 7682 8 1.0 1.0 ; static  ; cg_bonded
7674 7690 8 1.0 1.0 ; static  ; cg_bonded
7675 7692 1 0.135 402500.8
7676 7683 1 0.136 402500.8
7682 7690 8 1.0 1.0 ; static  ; cg_bonded
7684 7691 1 0.135 402500.8
7690 11112 8 1.0 1.0 ; chem  ; cg_bonded
7695 11116 1 0.143 267776.0
7699 7708 8 1.0 1.0 ; static  ; cg_bonded
7699 7717 8 1.0 1.0 ; static  ; cg_bonded
7699 10581 8 1.0 1.0 ; chem  ; cg_bonded
7700 7719 1 0.135 402500.8
7701 7709 1 0.136 402500.8
7704 10585 1 0.143 267776.0
7708 7717 8 1.0 1.0 ; static  ; cg_bonded
7708 12037 8 1.0 1.0 ; chem  ; cg_bonded
7710 7718 1 0.135 402500.8
7713 12041 1 0.143 267776.0
7725 7734 8 1.0 1.0 ; static  ; cg_bonded
7725 7743 8 1.0 1.0 ; static  ; cg_bonded
7725 8392 8 1.0 1.0 ; chem  ; cg_bonded
7726 7745 1 0.135 402500.8
7727 7735 1 0.136 402500.8
7730 8396 1 0.143 267776.0
7734 7743 8 1.0 1.0 ; static  ; cg_bonded
7734 11698 8 1.0 1.0 ; chem  ; cg_bonded
7736 7744 1 0.135 402500.8
7739 11702 1 0.143 267776.0
7751 7759 8 1.0 1.0 ; static  ; cg_bonded
7751 7768 8 1.0 1.0 ; static  ; cg_bonded
7752 7770 1 0.135 402500.8
7753 7760 1 0.136 402500.8
7759 7768 8 1.0 1.0 ; static  ; cg_bonded
7759 9422 8 1.0 1.0 ; chem  ; cg_bonded
7761 7769 1 0.135 402500.8
7764 9426 1 0.143 267776.0
7776 7786 8 1.0 1.0 ; static  ; cg_bonded
7776 7795 8 1.0 1.0 ; static  ; cg_bonded
7777 7797 1 0.135 402500.8
7778 7787 1 0.136 402500.8
7786 7795 8 1.0 1.0 ; static  ; cg_bonded
7786 11096 8 1.0 1.0 ; chem  ; cg_bonded
7788 7796 1 0.135 402500.8
7791 11100 1 0.143 267776.0
7803 7811 8 1.0 1.0 ; static  ; cg_bonded
7803 7820 8 1.0 1.0 ; static  ; cg_bonded
7804 7822 1 0.135 402500.8
7805 7812 1 0.136 402500.8
7811 7820 8 1.0 1.0 ; static  ; cg_bonded
7811 10915 8 1.0 1.0 ; chem  ; cg_bonded
7813 7821 1 0.135 402500.8
7816 10919 1 0.143 267776.0
7828 7836 8 1.0 1.0 ; static  ; cg_bonded
7828 7844 8 1.0 1.0 ; static  ; cg_bonded
7829 7846 1 0.135 402500.8
7830 7837 1 0.136 402500.8
7836 7844 8 1.0 1.0 ; static  ; cg_bonded
7838 7845 1 0.135 402500.8
7844 12480 8 1.0 1.0 ; chem  ; cg_bonded
7849 12484 1 0.143 267776.0
7853 7862 8 1.0 1.0 ; static  ; cg_bonded
7853 7870 8 1.0 1.0 ; static  ; cg_bonded
7853 9246 8 1.0 1.0 ; chem  ; cg_bonded
7854 7872 1 0.135 402500.8
7855 7863 1 0.136 402500.8
7858 9250 1 0.143 267776.0
7862 7870 8 1.0 1.0 ; static  ; cg_bonded
7864 7871 1 0.135 402500.8
7878 7886 8 1.0 1.0 ; static  ; cg_bonded
7878 7894 8 1.0 1.0 ; static  ; cg_bonded
7879 7896 1 0.135 402500.8
7880 7887 1 0.136 402500.8
7886 7894 8 1.0 1.0 ; static  ; cg_bonded
7888 7895 1 0.135 402500.8
7894 8892 8 1.0 1.0 ; chem  ; cg_bonded
7899 8896 1 0.143 267776.0
7903 7911 8 1.0 1.0 ; static  ; cg_bonded
7903 7920 8 1.0 1.0 ; static  ; cg_bonded
7904 7922 1 0.135 402500.8
7905 7912 1 0.136 402500.8
7911 7920 8 1.0 1.0 ; static  ; cg_bonded
7911 9750 8 1.0 1.0 ; chem  ; cg_bonded
7913 7921 1 0.135 402500.8
7916 9754 1 0.143 267776.0
7920 9406 8 1.0 1.0 ; chem  ; cg_bonded
7925 9410 1 0.143 267776.0
7929 7937 8 1.0 1.0 ; static  ; cg_bonded
7929 7947 8 1.0 1.0 ; static  ; cg_bonded
7930 7949 1 0.135 402500.8
7931 7938 1 0.136 402500.8
7937 7947 8 1.0 1.0 ; static  ; cg_bonded
7939 7948 1 0.135 402500.8
7955 7964 8 1.0 1.0 ; static  ; cg_bonded
7955 7974 8 1.0 1.0 ; static  ; cg_bonded
7955 12334 8 1.0 1.0 ; chem  ; cg_bonded
7956 7976 1 0.135 402500.8
7957 7965 1 0.136 402500.8
7960 12338 1 0.143 267776.0
7964 7974 8 1.0 1.0 ; static  ; cg_bonded
7966 7975 1 0.135 402500.8
7974 11180 8 1.0 1.0 ; chem  ; cg_bonded
7979 11184 1 0.143 267776.0
7983 7993 8 1.0 1.0 ; static  ; cg_bonded
7983 8002 8 1.0 1.0 ; static  ; cg_bonded
7984 8004 1 0.135 402500.8
7985 7994 1 0.136 402500.8
7993 8002 8 1.0 1.0 ; static  ; cg_bonded
7993 8646 8 1.0 1.0 ; chem  ; cg_bonded
7995 8003 1 0.135 402500.8
7998 8650 1 0.143 267776.0
8010 8019 8 1.0 1.0 ; static  ; cg_bonded
8010 8028 8 1.0 1.0 ; static  ; cg_bonded
8010 12318 8 1.0 1.0 ; chem  ; cg_bonded
8011 8030 1 0.135 402500.8
8012 8020 1 0.136 402500.8
8015 12322 1 0.143 267776.0
8019 8028 8 1.0 1.0 ; static  ; cg_bonded
8019 8140 8 1.0 1.0 ; chem  ; cg_bonded
8021 8029 1 0.135 402500.8
8024 8144 1 0.143 267776.0
8028 11308 8 1.0 1.0 ; chem  ; cg_bonded
8033 11312 1 0.143 267776.0
8037 8046 8 1.0 1.0 ; static  ; cg_bonded
8037 8054 8 1.0 1.0 ; static  ; cg_bonded
8037 11564 8 1.0 1.0 ; chem  ; cg_bonded
8038 8056 1 0.135 402500.8
8039 8047 1 0.136 402500.8
8042 11568 1 0.143 267776.0
8046 8054 8 1.0 1.0 ; static  ; cg_bonded
8048 8055 1 0.135 402500.8
8062 8070 8 1.0 1.0 ; static  ; cg_bonded
8062 8079 8 1.0 1.0 ; static  ; cg_bonded
8063 8081 1 0.135 402500.8
8064 8071 1 0.136 402500.8
8070 8079 8 1.0 1.0 ; static  ; cg_bonded
8070 8970 8 1.0 1.0 ; chem  ; cg_bonded
8072 8080 1 0.135 402500.8
8075 8974 1 0.143 267776.0
8087 8095 8 1.0 1.0 ; static  ; cg_bonded
8087 8104 8 1.0 1.0 ; static  ; cg_bonded
8088 8106 1 0.135 402500.8
8089 8096 1 0.136 402500.8
8095 8104 8 1.0 1.0 ; static  ; cg_bonded
8095 9717 8 1.0 1.0 ; chem  ; cg_bonded
8097 8105 1 0.135 402500.8
8100 9721 1 0.143 267776.0
8104 10891 8 1.0 1.0 ; chem  ; cg_bonded
8109 10895 1 0.143 267776.0
8113 8122 8 1.0 1.0 ; static  ; cg_bonded
8113 8132 8 1.0 1.0 ; static  ; cg_bonded
8113 11878 8 1.0 1.0 ; chem  ; cg_bonded
8114 8134 1 0.135 402500.8
8115 8123 1 0.136 402500.8
8118 11882 1 0.143 267776.0
8122 8132 8 1.0 1.0 ; static  ; cg_bonded
8124 8133 1 0.135 402500.8
8140 8148 8 1.0 1.0 ; static  ; cg_bonded
8140 8157 8 1.0 1.0 ; static  ; cg_bonded
8141 8159 1 0.135 402500.8
8142 8149 1 0.136 402500.8
8148 8157 8 1.0 1.0 ; static  ; cg_bonded
8148 8713 8 1.0 1.0 ; chem  ; cg_bonded
8150 8158 1 0.135 402500.8
8153 8717 1 0.143 267776.0
8165 8173 8 1.0 1.0 ; static  ; cg_bonded
8165 8181 8 1.0 1.0 ; static  ; cg_bonded
8166 8183 1 0.135 402500.8
8167 8174 1 0.136 402500.8
8173 8181 8 1.0 1.0 ; static  ; cg_bonded
8175 8182 1 0.135 402500.8
8189 8197 8 1.0 1.0 ; static  ; cg_bonded
8189 8206 8 1.0 1.0 ; static  ; cg_bonded
8190 8208 1 0.135 402500.8
8191 8198 1 0.136 402500.8
8197 8206 8 1.0 1.0 ; static  ; cg_bonded
8197 8978 8 1.0 1.0 ; chem  ; cg_bonded
8199 8207 1 0.135 402500.8
8202 8982 1 0.143 267776.0
8214 8223 8 1.0 1.0 ; static  ; cg_bonded
8214 8232 8 1.0 1.0 ; static  ; cg_bonded
8214 9053 8 1.0 1.0 ; chem  ; cg_bonded
8215 8234 1 0.135 402500.8
8216 8224 1 0.136 402500.8
8219 9057 1 0.143 267776.0
8223 8232 8 1.0 1.0 ; static  ; cg_bonded
8223 12350 8 1.0 1.0 ; chem  ; cg_bonded
8225 8233 1 0.135 402500.8
8228 12354 1 0.143 267776.0
8232 8729 8 1.0 1.0 ; chem  ; cg_bonded
8237 8733 1 0.143 267776.0
8241 8250 8 1.0 1.0 ; static  ; cg_bonded
8241 8258 8 1.0 1.0 ; static  ; cg_bonded
8241 12944 8 1.0 1.0 ; chem  ; cg_bonded
8242 8260 1 0.135 402500.8
8243 8251 1 0.136 402500.8
8246 12948 1 0.143 267776.0
8250 8258 8 1.0 1.0 ; static  ; cg_bonded
8252 8259 1 0.135 402500.8
8266 8275 8 1.0 1.0 ; static  ; cg_bonded
8266 8284 8 1.0 1.0 ; static  ; cg_bonded
8266 12159 8 1.0 1.0 ; chem  ; cg_bonded
8267 8286 1 0.135 402500.8
8268 8276 1 0.136 402500.8
8271 12163 1 0.143 267776.0
8275 8284 8 1.0 1.0 ; static  ; cg_bonded
8275 10098 8 1.0 1.0 ; chem  ; cg_bonded
8277 8285 1 0.135 402500.8
8280 10102 1 0.143 267776.0
8292 8300 8 1.0 1.0 ; static  ; cg_bonded
8292 8310 8 1.0 1.0 ; static  ; cg_bonded
8293 8312 1 0.135 402500.8
8294 8301 1 0.136 402500.8
8300 8310 8 1.0 1.0 ; static  ; cg_bonded
8302 8311 1 0.135 402500.8
8318 8326 8 1.0 1.0 ; static  ; cg_bonded
8318 8334 8 1.0 1.0 ; static  ; cg_bonded
8319 8336 1 0.135 402500.8
8320 8327 1 0.136 402500.8
8326 8334 8 1.0 1.0 ; static  ; cg_bonded
8328 8335 1 0.135 402500.8
8342 8350 8 1.0 1.0 ; static  ; cg_bonded
8342 8358 8 1.0 1.0 ; static  ; cg_bonded
8343 8360 1 0.135 402500.8
8344 8351 1 0.136 402500.8
8350 8358 8 1.0 1.0 ; static  ; cg_bonded
8352 8359 1 0.135 402500.8
8366 8375 8 1.0 1.0 ; static  ; cg_bonded
8366 8384 8 1.0 1.0 ; static  ; cg_bonded
8366 10090 8 1.0 1.0 ; chem  ; cg_bonded
8367 8386 1 0.135 402500.8
8368 8376 1 0.136 402500.8
8371 10094 1 0.143 267776.0
8375 8384 8 1.0 1.0 ; static  ; cg_bonded
8375 12606 8 1.0 1.0 ; chem  ; cg_bonded
8377 8385 1 0.135 402500.8
8380 12610 1 0.143 267776.0
8392 8400 8 1.0 1.0 ; static  ; cg_bonded
8392 8409 8 1.0 1.0 ; static  ; cg_bonded
8393 8411 1 0.135 402500.8
8394 8401 1 0.136 402500.8
8400 8409 8 1.0 1.0 ; static  ; cg_bonded
8400 12590 8 1.0 1.0 ; chem  ; cg_bonded
8402 8410 1 0.135 402500.8
8405 12594 1 0.143 267776.0
8409 9660 8 1.0 1.0 ; chem  ; cg_bonded
8414 9664 1 0.143 267776.0
8418 8427 8 1.0 1.0 ; static  ; cg_bonded
8418 8435 8 1.0 1.0 ; static  ; cg_bonded
8418 9304 8 1.0 1.0 ; chem  ; cg_bonded
8419 8437 1 0.135 402500.8
8420 8428 1 0.136 402500.8
8423 9308 1 0.143 267776.0
8427 8435 8 1.0 1.0 ; static  ; cg_bonded
8429 8436 1 0.135 402500.8
8443 8453 8 1.0 1.0 ; static  ; cg_bonded
8443 8461 8 1.0 1.0 ; static  ; cg_bonded
8444 8463 1 0.135 402500.8
8445 8454 1 0.136 402500.8
8453 8461 8 1.0 1.0 ; static  ; cg_bonded
8455 8462 1 0.135 402500.8
8469 8477 8 1.0 1.0 ; static  ; cg_bonded
8469 8486 8 1.0 1.0 ; static  ; cg_bonded
8470 8488 1 0.135 402500.8
8471 8478 1 0.136 402500.8
8477 8486 8 1.0 1.0 ; static  ; cg_bonded
8477 10231 8 1.0 1.0 ; chem  ; cg_bonded
8479 8487 1 0.135 402500.8
8482 10235 1 0.143 267776.0
8486 12053 8 1.0 1.0 ; chem  ; cg_bonded
8491 12057 1 0.143 267776.0
8495 8503 8 1.0 1.0 ; static  ; cg_bonded
8495 8511 8 1.0 1.0 ; static  ; cg_bonded
8496 8513 1 0.135 402500.8
8497 8504 1 0.136 402500.8
8503 8511 8 1.0 1.0 ; static  ; cg_bonded
8505 8512 1 0.135 402500.8
8519 8527 8 1.0 1.0 ; static  ; cg_bonded
8519 8536 8 1.0 1.0 ; static  ; cg_bonded
8520 8538 1 0.135 402500.8
8521 8528 1 0.136 402500.8
8527 8536 8 1.0 1.0 ; static  ; cg_bonded
8527 10707 8 1.0 1.0 ; chem  ; cg_bonded
8529 8537 1 0.135 402500.8
8532 10711 1 0.143 267776.0
8536 11104 8 1.0 1.0 ; chem  ; cg_bonded
8541 11108 1 0.143 267776.0
8545 8553 8 1.0 1.0 ; static  ; cg_bonded
8545 8562 8 1.0 1.0 ; static  ; cg_bonded
8546 8564 1 0.135 402500.8
8547 8554 1 0.136 402500.8
8553 8562 8 1.0 1.0 ; static  ; cg_bonded
8553 12680 8 1.0 1.0 ; chem  ; cg_bonded
8555 8563 1 0.135 402500.8
8558 12684 1 0.143 267776.0
8570 8579 8 1.0 1.0 ; static  ; cg_bonded
8570 8587 8 1.0 1.0 ; static  ; cg_bonded
8570 10958 8 1.0 1.0 ; chem  ; cg_bonded
8571 8589 1 0.135 402500.8
8572 8580 1 0.136 402500.8
8575 10962 1 0.143 267776.0
8579 8587 8 1.0 1.0 ; static  ; cg_bonded
8581 8588 1 0.135 402500.8
8595 8603 8 1.0 1.0 ; static  ; cg_bonded
8595 8612 8 1.0 1.0 ; static  ; cg_bonded
8596 8614 1 0.135 402500.8
8597 8604 1 0.136 402500.8
8603 8612 8 1.0 1.0 ; static  ; cg_bonded
8603 10512 8 1.0 1.0 ; chem  ; cg_bonded
8605 8613 1 0.135 402500.8
8608 10516 1 0.143 267776.0
8612 9610 8 1.0 1.0 ; chem  ; cg_bonded
8617 9614 1 0.143 267776.0
8621 8630 8 1.0 1.0 ; static  ; cg_bonded
8621 8638 8 1.0 1.0 ; static  ; cg_bonded
8621 8900 8 1.0 1.0 ; chem  ; cg_bonded
8622 8640 1 0.135 402500.8
8623 8631 1 0.136 402500.8
8626 8904 1 0.143 267776.0
8630 8638 8 1.0 1.0 ; static  ; cg_bonded
8632 8639 1 0.135 402500.8
8646 8654 8 1.0 1.0 ; static  ; cg_bonded
8646 8662 8 1.0 1.0 ; static  ; cg_bonded
8647 8664 1 0.135 402500.8
8648 8655 1 0.136 402500.8
8654 8662 8 1.0 1.0 ; static  ; cg_bonded
8656 8663 1 0.135 402500.8
8670 8678 8 1.0 1.0 ; static  ; cg_bonded
8670 8687 8 1.0 1.0 ; static  ; cg_bonded
8671 8689 1 0.135 402500.8
8672 8679 1 0.136 402500.8
8678 8687 8 1.0 1.0 ; static  ; cg_bonded
8678 11960 8 1.0 1.0 ; chem  ; cg_bonded
8680 8688 1 0.135 402500.8
8683 11964 1 0.143 267776.0
8695 8703 8 1.0 1.0 ; static  ; cg_bonded
8695 8713 8 1.0 1.0 ; static  ; cg_bonded
8696 8715 1 0.135 402500.8
8697 8704 1 0.136 402500.8
8703 8713 8 1.0 1.0 ; static  ; cg_bonded
8705 8714 1 0.135 402500.8
8721 8729 8 1.0 1.0 ; static  ; cg_bonded
8721 8737 8 1.0 1.0 ; static  ; cg_bonded
8722 8739 1 0.135 402500.8
8723 8730 1 0.136 402500.8
8729 8737 8 1.0 1.0 ; static  ; cg_bonded
8731 8738 1 0.135 402500.8
8737 12326 8 1.0 1.0 ; chem  ; cg_bonded
8742 12330 1 0.143 267776.0
8746 8755 8 1.0 1.0 ; static  ; cg_bonded
8746 8764 8 1.0 1.0 ; static  ; cg_bonded
8746 9925 8 1.0 1.0 ; chem  ; cg_bonded
8747 8766 1 0.135 402500.8
8748 8756 1 0.136 402500.8
8751 9929 1 0.143 267776.0
8755 8764 8 1.0 1.0 ; static  ; cg_bonded
8755 11870 8 1.0 1.0 ; chem  ; cg_bonded
8757 8765 1 0.135 402500.8
8760 11874 1 0.143 267776.0
8764 11572 8 1.0 1.0 ; chem  ; cg_bonded
8769 11576 1 0.143 267776.0
8773 8781 8 1.0 1.0 ; static  ; cg_bonded
8773 8790 8 1.0 1.0 ; static  ; cg_bonded
8774 8792 1 0.135 402500.8
8775 8782 1 0.136 402500.8
8781 8790 8 1.0 1.0 ; static  ; cg_bonded
8781 11771 8 1.0 1.0 ; chem  ; cg_bonded
8783 8791 1 0.135 402500.8
8786 11775 1 0.143 267776.0
8798 8807 8 1.0 1.0 ; static  ; cg_bonded
8798 8815 8 1.0 1.0 ; static  ; cg_bonded
8798 9363 8 1.0 1.0 ; chem  ; cg_bonded
8799 8817 1 0.135 402500.8
8800 8808 1 0.136 402500.8
8803 9367 1 0.143 267776.0
8807 8815 8 1.0 1.0 ; static  ; cg_bonded
8809 8816 1 0.135 402500.8
8815 11437 8 1.0 1.0 ; chem  ; cg_bonded
8820 11441 1 0.143 267776.0
8824 8832 8 1.0 1.0 ; static  ; cg_bonded
8824 8840 8 1.0 1.0 ; static  ; cg_bonded
8825 8842 1 0.135 402500.8
8826 8833 1 0.136 402500.8
8832 8840 8 1.0 1.0 ; static  ; cg_bonded
8834 8841 1 0.135 402500.8
8840 10472 8 1.0 1.0 ; chem  ; cg_bonded
8845 10476 1 0.143 267776.0
8849 8857 8 1.0 1.0 ; static  ; cg_bonded
8849 8866 8 1.0 1.0 ; static  ; cg_bonded
8850 8868 1 0.135 402500.8
8851 8858 1 0.136 402500.8
8857 8866 8 1.0 1.0 ; static  ; cg_bonded
8857 10931 8 1.0 1.0 ; chem  ; cg_bonded
8859 8867 1 0.135 402500.8
8862 10935 1 0.143 267776.0
8874 8884 8 1.0 1.0 ; static  ; cg_bonded
8874 8892 8 1.0 1.0 ; static  ; cg_bonded
8875 8894 1 0.135 402500.8
8876 8885 1 0.136 402500.8
8884 8892 8 1.0 1.0 ; static  ; cg_bonded
8886 8893 1 0.135 402500.8
8900 8908 8 1.0 1.0 ; static  ; cg_bonded
8900 8917 8 1.0 1.0 ; static  ; cg_bonded
8901 8919 1 0.135 402500.8
8902 8909 1 0.136 402500.8
8908 8917 8 1.0 1.0 ; static  ; cg_bonded
8908 9455 8 1.0 1.0 ; chem  ; cg_bonded
8910 8918 1 0.135 402500.8
8913 9459 1 0.143 267776.0
8925 8935 8 1.0 1.0 ; static  ; cg_bonded
8925 8944 8 1.0 1.0 ; static  ; cg_bonded
8926 8946 1 0.135 402500.8
8927 8936 1 0.136 402500.8
8935 8944 8 1.0 1.0 ; static  ; cg_bonded
8935 11747 8 1.0 1.0 ; chem  ; cg_bonded
8937 8945 1 0.135 402500.8
8940 11751 1 0.143 267776.0
8952 8961 8 1.0 1.0 ; static  ; cg_bonded
8952 8970 8 1.0 1.0 ; static  ; cg_bonded
8952 10082 8 1.0 1.0 ; chem  ; cg_bonded
8953 8972 1 0.135 402500.8
8954 8962 1 0.136 402500.8
8957 10086 1 0.143 267776.0
8961 8970 8 1.0 1.0 ; static  ; cg_bonded
8961 10179 8 1.0 1.0 ; chem  ; cg_bonded
8963 8971 1 0.135 402500.8
8966 10183 1 0.143 267776.0
8978 8986 8 1.0 1.0 ; static  ; cg_bonded
8978 8994 8 1.0 1.0 ; static  ; cg_bonded
8979 8996 1 0.135 402500.8
8980 8987 1 0.136 402500.8
8986 8994 8 1.0 1.0 ; static  ; cg_bonded
8988 8995 1 0.135 402500.8
9002 9012 8 1.0 1.0 ; static  ; cg_bonded
9002 9020 8 1.0 1.0 ; static  ; cg_bonded
9003 9022 1 0.135 402500.8
9004 9013 1 0.136 402500.8
9012 9020 8 1.0 1.0 ; static  ; cg_bonded
9014 9021 1 0.135 402500.8
9028 9036 8 1.0 1.0 ; static  ; cg_bonded
9028 9045 8 1.0 1.0 ; static  ; cg_bonded
9029 9047 1 0.135 402500.8
9030 9037 1 0.136 402500.8
9036 9045 8 1.0 1.0 ; static  ; cg_bonded
9036 12598 8 1.0 1.0 ; chem  ; cg_bonded
9038 9046 1 0.135 402500.8
9041 12602 1 0.143 267776.0
9053 9061 8 1.0 1.0 ; static  ; cg_bonded
9053 9069 8 1.0 1.0 ; static  ; cg_bonded
9054 9071 1 0.135 402500.8
9055 9062 1 0.136 402500.8
9061 9069 8 1.0 1.0 ; static  ; cg_bonded
9063 9070 1 0.135 402500.8
9077 9085 8 1.0 1.0 ; static  ; cg_bonded
9077 9093 8 1.0 1.0 ; static  ; cg_bonded
9078 9095 1 0.135 402500.8
9079 9086 1 0.136 402500.8
9085 9093 8 1.0 1.0 ; static  ; cg_bonded
9087 9094 1 0.135 402500.8
9093 12768 8 1.0 1.0 ; chem  ; cg_bonded
9098 12772 1 0.143 267776.0
9102 9110 8 1.0 1.0 ; static  ; cg_bonded
9102 9118 8 1.0 1.0 ; static  ; cg_bonded
9103 9120 1 0.135 402500.8
9104 9111 1 0.136 402500.8
9110 9118 8 1.0 1.0 ; static  ; cg_bonded
9112 9119 1 0.135 402500.8
9118 11952 8 1.0 1.0 ; chem  ; cg_bonded
9123 11956 1 0.143 267776.0
9127 9135 8 1.0 1.0 ; static  ; cg_bonded
9127 9145 8 1.0 1.0 ; static  ; cg_bonded
9128 9147 1 0.135 402500.8
9129 9136 1 0.136 402500.8
9135 9145 8 1.0 1.0 ; static  ; cg_bonded
9137 9146 1 0.135 402500.8
9155 9164 8 1.0 1.0 ; static  ; cg_bonded
9155 9172 8 1.0 1.0 ; static  ; cg_bonded
9155 12498 8 1.0 1.0 ; chem  ; cg_bonded
9156 9174 1 0.135 402500.8
9157 9165 1 0.136 402500.8
9160 12502 1 0.143 267776.0
9164 9172 8 1.0 1.0 ; static  ; cg_bonded
9166 9173 1 0.135 402500.8
9180 9188 8 1.0 1.0 ; static  ; cg_bonded
9180 9196 8 1.0 1.0 ; static  ; cg_bonded
9181 9198 1 0.135 402500.8
9182 9189 1 0.136 402500.8
9188 9196 8 1.0 1.0 ; static  ; cg_bonded
9190 9197 1 0.135 402500.8
9204 9213 8 1.0 1.0 ; static  ; cg_bonded
9204 9221 8 1.0 1.0 ; static  ; cg_bonded
9204 11715 8 1.0 1.0 ; chem  ; cg_bonded
9205 9223 1 0.135 402500.8
9206 9214 1 0.136 402500.8
9209 11719 1 0.143 267776.0
9213 9221 8 1.0 1.0 ; static  ; cg_bonded
9215 9222 1 0.135 402500.8
9229 9237 8 1.0 1.0 ; static  ; cg_bonded
9229 9246 8 1.0 1.0 ; static  ; cg_bonded
9230 9248 1 0.135 402500.8
9231 9238 1 0.136 402500.8
9237 9246 8 1.0 1.0 ; static  ; cg_bonded
9237 10448 8 1.0 1.0 ; chem  ; cg_bonded
9239 9247 1 0.135 402500.8
9242 10452 1 0.143 267776.0
9254 9262 8 1.0 1.0 ; static  ; cg_bonded
9254 9270 8 1.0 1.0 ; static  ; cg_bonded
9255 9272 1 0.135 402500.8
9256 9263 1 0.136 402500.8
9262 9270 8 1.0 1.0 ; static  ; cg_bonded
9264 9271 1 0.135 402500.8
9278 9286 8 1.0 1.0 ; static  ; cg_bonded
9278 9294 8 1.0 1.0 ; static  ; cg_bonded
9279 9296 1 0.135 402500.8
9280 9287 1 0.136 402500.8
9286 9294 8 1.0 1.0 ; static  ; cg_bonded
9288 9295 1 0.135 402500.8
9304 9312 8 1.0 1.0 ; static  ; cg_bonded
9304 9321 8 1.0 1.0 ; static  ; cg_bonded
9305 9323 1 0.135 402500.8
9306 9313 1 0.136 402500.8
9312 9321 8 1.0 1.0 ; static  ; cg_bonded
9312 9966 8 1.0 1.0 ; chem  ; cg_bonded
9314 9322 1 0.135 402500.8
9317 9970 1 0.143 267776.0
9321 9668 8 1.0 1.0 ; chem  ; cg_bonded
9326 9672 1 0.143 267776.0
9330 9338 8 1.0 1.0 ; static  ; cg_bonded
9330 9346 8 1.0 1.0 ; static  ; cg_bonded
9331 9348 1 0.135 402500.8
9332 9339 1 0.136 402500.8
9338 9346 8 1.0 1.0 ; static  ; cg_bonded
9340 9347 1 0.135 402500.8
9346 11324 8 1.0 1.0 ; chem  ; cg_bonded
9351 11328 1 0.143 267776.0
9355 9363 8 1.0 1.0 ; static  ; cg_bonded
9355 9371 8 1.0 1.0 ; static  ; cg_bonded
9356 9373 1 0.135 402500.8
9357 9364 1 0.136 402500.8
9363 9371 8 1.0 1.0 ; static  ; cg_bonded
9365 9372 1 0.135 402500.8
9381 9390 8 1.0 1.0 ; static  ; cg_bonded
9381 9398 8 1.0 1.0 ; static  ; cg_bonded
9381 11511 8 1.0 1.0 ; chem  ; cg_bonded
9382 9400 1 0.135 402500.8
9383 9391 1 0.136 402500.8
9386 11515 1 0.143 267776.0
9390 9398 8 1.0 1.0 ; static  ; cg_bonded
9392 9399 1 0.135 402500.8
9406 9414 8 1.0 1.0 ; static  ; cg_bonded
9406 9422 8 1.0 1.0 ; static  ; cg_bonded
9407 9424 1 0.135 402500.8
9408 9415 1 0.136 402500.8
9414 9422 8 1.0 1.0 ; static  ; cg_bonded
9416 9423 1 0.135 402500.8
9430 9438 8 1.0 1.0 ; static  ; cg_bonded
9430 9447 8 1.0 1.0 ; static  ; cg_bonded
9431 9449 1 0.135 402500.8
9432 9439 1 0.136 402500.8
9438 9447 8 1.0 1.0 ; static  ; cg_bonded
9438 10213 8 1.0 1.0 ; chem  ; cg_bonded
9440 9448 1 0.135 402500.8
9443 10217 1 0.143 267776.0
9455 9463 8 1.0 1.0 ; static  ; cg_bonded
9455 9471 8 1.0 1.0 ; static  ; cg_bonded
9456 9473 1 0.135 402500.8
9457 9464 1 0.136 402500.8
9463 9471 8 1.0 1.0 ; static  ; cg_bonded
9465 9472 1 0.135 402500.8
9479 9488 8 1.0 1.0 ; static  ; cg_bonded
9479 9497 8 1.0 1.0 ; static  ; cg_bonded
9479 10008 8 1.0 1.0 ; chem  ; cg_bonded
9480 9499 1 0.135 402500.8
9481 9489 1 0.136 402500.8
9484 10012 1 0.143 267776.0
9488 9497 8 1.0 1.0 ; static  ; cg_bonded
9488 12704 8 1.0 1.0 ; chem  ; cg_bonded
9490 9498 1 0.135 402500.8
9493 12708 1 0.143 267776.0
9505 9514 8 1.0 1.0 ; static  ; cg_bonded
9505 9523 8 1.0 1.0 ; static  ; cg_bonded
9505 12079 8 1.0 1.0 ; chem  ; cg_bonded
9506 9525 1 0.135 402500.8
9507 9515 1 0.136 402500.8
9510 12083 1 0.143 267776.0
9514 9523 8 1.0 1.0 ; static  ; cg_bonded
9514 12021 8 1.0 1.0 ; chem  ; cg_bonded
9516 9524 1 0.135 402500.8
9519 12025 1 0.143 267776.0
9531 9540 8 1.0 1.0 ; static  ; cg_bonded
9531 9548 8 1.0 1.0 ; static  ; cg_bonded
9531 12688 8 1.0 1.0 ; chem  ; cg_bonded
9532 9550 1 0.135 402500.8
9533 9541 1 0.136 402500.8
9536 12692 1 0.143 267776.0
9540 9548 8 1.0 1.0 ; static  ; cg_bonded
9542 9549 1 0.135 402500.8
9548 12582 8 1.0 1.0 ; chem  ; cg_bonded
9553 12586 1 0.143 267776.0
9557 9565 8 1.0 1.0 ; static  ; cg_bonded
9557 9574 8 1.0 1.0 ; static  ; cg_bonded
9558 9576 1 0.135 402500.8
9559 9566 1 0.136 402500.8
9565 9574 8 1.0 1.0 ; static  ; cg_bonded
9565 11040 8 1.0 1.0 ; chem  ; cg_bonded
9567 9575 1 0.135 402500.8
9570 11044 1 0.143 267776.0
9584 9593 8 1.0 1.0 ; static  ; cg_bonded
9584 9602 8 1.0 1.0 ; static  ; cg_bonded
9584 11588 8 1.0 1.0 ; chem  ; cg_bonded
9585 9604 1 0.135 402500.8
9586 9594 1 0.136 402500.8
9589 11592 1 0.143 267776.0
9593 9602 8 1.0 1.0 ; static  ; cg_bonded
9593 11243 8 1.0 1.0 ; chem  ; cg_bonded
9595 9603 1 0.135 402500.8
9598 11247 1 0.143 267776.0
9610 9618 8 1.0 1.0 ; static  ; cg_bonded
9610 9626 8 1.0 1.0 ; static  ; cg_bonded
9611 9628 1 0.135 402500.8
9612 9619 1 0.136 402500.8
9618 9626 8 1.0 1.0 ; static  ; cg_bonded
9620 9627 1 0.135 402500.8
9634 9642 8 1.0 1.0 ; static  ; cg_bonded
9634 9652 8 1.0 1.0 ; static  ; cg_bonded
9635 9654 1 0.135 402500.8
9636 9643 1 0.136 402500.8
9642 9652 8 1.0 1.0 ; static  ; cg_bonded
9644 9653 1 0.135 402500.8
9660 9668 8 1.0 1.0 ; static  ; cg_bonded
9660 9676 8 1.0 1.0 ; static  ; cg_bonded
9661 9678 1 0.135 402500.8
9662 9669 1 0.136 402500.8
9668 9676 8 1.0 1.0 ; static  ; cg_bonded
9670 9677 1 0.135 402500.8
9684 9692 8 1.0 1.0 ; static  ; cg_bonded
9684 9700 8 1.0 1.0 ; static  ; cg_bonded
9685 9702 1 0.135 402500.8
9686 9693 1 0.136 402500.8
9692 9700 8 1.0 1.0 ; static  ; cg_bonded
9694 9701 1 0.135 402500.8
9708 9717 8 1.0 1.0 ; static  ; cg_bonded
9708 9725 8 1.0 1.0 ; static  ; cg_bonded
9708 9777 8 1.0 1.0 ; chem  ; cg_bonded
9709 9727 1 0.135 402500.8
9710 9718 1 0.136 402500.8
9713 9781 1 0.143 267776.0
9717 9725 8 1.0 1.0 ; static  ; cg_bonded
9719 9726 1 0.135 402500.8
9733 9741 8 1.0 1.0 ; static  ; cg_bonded
9733 9750 8 1.0 1.0 ; static  ; cg_bonded
9734 9752 1 0.135 402500.8
9735 9742 1 0.136 402500.8
9741 9750 8 1.0 1.0 ; static  ; cg_bonded
9741 12622 8 1.0 1.0 ; chem  ; cg_bonded
9743 9751 1 0.135 402500.8
9746 12626 1 0.143 267776.0
9758 9768 8 1.0 1.0 ; static  ; cg_bonded
9758 9777 8 1.0 1.0 ; static  ; cg_bonded
9759 9779 1 0.135 402500.8
9760 9769 1 0.136 402500.8
9768 9777 8 1.0 1.0 ; static  ; cg_bonded
9768 9958 8 1.0 1.0 ; chem  ; cg_bonded
9770 9778 1 0.135 402500.8
9773 9962 1 0.143 267776.0
9785 9794 8 1.0 1.0 ; static  ; cg_bonded
9785 9804 8 1.0 1.0 ; static  ; cg_bonded
9785 12246 8 1.0 1.0 ; chem  ; cg_bonded
9786 9806 1 0.135 402500.8
9787 9795 1 0.136 402500.8
9790 12250 1 0.143 267776.0
9794 9804 8 1.0 1.0 ; static  ; cg_bonded
9796 9805 1 0.135 402500.8
9814 9823 8 1.0 1.0 ; static  ; cg_bonded
9814 9832 8 1.0 1.0 ; static  ; cg_bonded
9814 9917 8 1.0 1.0 ; chem  ; cg_bonded
9815 9834 1 0.135 402500.8
9816 9824 1 0.136 402500.8
9819 9921 1 0.143 267776.0
9823 9832 8 1.0 1.0 ; static  ; cg_bonded
9823 11894 8 1.0 1.0 ; chem  ; cg_bonded
9825 9833 1 0.135 402500.8
9828 11898 1 0.143 267776.0
9840 9849 8 1.0 1.0 ; static  ; cg_bonded
9840 9857 8 1.0 1.0 ; static  ; cg_bonded
9840 12558 8 1.0 1.0 ; chem  ; cg_bonded
9841 9859 1 0.135 402500.8
9842 9850 1 0.136 402500.8
9845 12562 1 0.143 267776.0
9849 9857 8 1.0 1.0 ; static  ; cg_bonded
9851 9858 1 0.135 402500.8
9857 11284 8 1.0 1.0 ; chem  ; cg_bonded
9862 11288 1 0.143 267776.0
9866 9874 8 1.0 1.0 ; static  ; cg_bonded
9866 9884 8 1.0 1.0 ; static  ; cg_bonded
9867 9886 1 0.135 402500.8
9868 9875 1 0.136 402500.8
9874 9884 8 1.0 1.0 ; static  ; cg_bonded
9876 9885 1 0.135 402500.8
9892 9900 8 1.0 1.0 ; static  ; cg_bonded
9892 9908 8 1.0 1.0 ; static  ; cg_bonded
9893 9910 1 0.135 402500.8
9894 9901 1 0.136 402500.8
9900 9908 8 1.0 1.0 ; static  ; cg_bonded
9902 9909 1 0.135 402500.8
9908 12220 8 1.0 1.0 ; chem  ; cg_bonded
9913 12224 1 0.143 267776.0
9917 9925 8 1.0 1.0 ; static  ; cg_bonded
9917 9933 8 1.0 1.0 ; static  ; cg_bonded
9918 9935 1 0.135 402500.8
9919 9926 1 0.136 402500.8
9925 9933 8 1.0 1.0 ; static  ; cg_bonded
9927 9934 1 0.135 402500.8
9933 12824 8 1.0 1.0 ; chem  ; cg_bonded
9938 12828 1 0.143 267776.0
9942 9950 8 1.0 1.0 ; static  ; cg_bonded
9942 9958 8 1.0 1.0 ; static  ; cg_bonded
9943 9960 1 0.135 402500.8
9944 9951 1 0.136 402500.8
9950 9958 8 1.0 1.0 ; static  ; cg_bonded
9952 9959 1 0.135 402500.8
9966 9974 8 1.0 1.0 ; static  ; cg_bonded
9966 9982 8 1.0 1.0 ; static  ; cg_bonded
9967 9984 1 0.135 402500.8
9968 9975 1 0.136 402500.8
9974 9982 8 1.0 1.0 ; static  ; cg_bonded
9976 9983 1 0.135 402500.8
9982 10856 8 1.0 1.0 ; chem  ; cg_bonded
9987 10860 1 0.143 267776.0
9991 9999 8 1.0 1.0 ; static  ; cg_bonded
9991 10008 8 1.0 1.0 ; static  ; cg_bonded
9992 10010 1 0.135 402500.8
9993 10000 1 0.136 402500.8
9999 10008 8 1.0 1.0 ; static  ; cg_bonded
9999 11364 8 1.0 1.0 ; chem  ; cg_bonded
10001 10009 1 0.135 402500.8
10004 11368 1 0.143 267776.0
10016 10024 8 1.0 1.0 ; static  ; cg_bonded
10016 10032 8 1.0 1.0 ; static  ; cg_bonded
10017 10034 1 0.135 402500.8
10018 10025 1 0.136 402500.8
10024 10032 8 1.0 1.0 ; static  ; cg_bonded
10026 10033 1 0.135 402500.8
10032 12842 8 1.0 1.0 ; chem  ; cg_bonded
10037 12846 1 0.143 267776.0
10041 10049 8 1.0 1.0 ; static  ; cg_bonded
10041 10057 8 1.0 1.0 ; static  ; cg_bonded
10042 10059 1 0.135 402500.8
10043 10050 1 0.136 402500.8
10049 10057 8 1.0 1.0 ; static  ; cg_bonded
10051 10058 1 0.135 402500.8
10065 10074 8 1.0 1.0 ; static  ; cg_bonded
10065 10082 8 1.0 1.0 ; static  ; cg_bonded
10065 10171 8 1.0 1.0 ; chem  ; cg_bonded
10066 10084 1 0.135 402500.8
10067 10075 1 0.136 402500.8
10070 10175 1 0.143 267776.0
10074 10082 8 1.0 1.0 ; static  ; cg_bonded
10076 10083 1 0.135 402500.8
10090 10098 8 1.0 1.0 ; static  ; cg_bonded
10090 10106 8 1.0 1.0 ; static  ; cg_bonded
10091 10108 1 0.135 402500.8
10092 10099 1 0.136 402500.8
10098 10106 8 1.0 1.0 ; static  ; cg_bonded
10100 10107 1 0.135 402500.8
10114 10123 8 1.0 1.0 ; static  ; cg_bonded
10114 10131 8 1.0 1.0 ; static  ; cg_bonded
10114 10647 8 1.0 1.0 ; chem  ; cg_bonded
10115 10133 1 0.135 402500.8
10116 10124 1 0.136 402500.8
10119 10651 1 0.143 267776.0
10123 10131 8 1.0 1.0 ; static  ; cg_bonded
10125 10132 1 0.135 402500.8
10139 10147 8 1.0 1.0 ; static  ; cg_bonded
10139 10155 8 1.0 1.0 ; static  ; cg_bonded
10140 10157 1 0.135 402500.8
10141 10148 1 0.136 402500.8
10147 10155 8 1.0 1.0 ; static  ; cg_bonded
10149 10156 1 0.135 402500.8
10163 10171 8 1.0 1.0 ; static  ; cg_bonded
10163 10179 8 1.0 1.0 ; static  ; cg_bonded
10164 10181 1 0.135 402500.8
10165 10172 1 0.136 402500.8
10171 10179 8 1.0 1.0 ; static  ; cg_bonded
10173 10180 1 0.135 402500.8
10187 10195 8 1.0 1.0 ; static  ; cg_bonded
10187 10205 8 1.0 1.0 ; static  ; cg_bonded
10188 10207 1 0.135 402500.8
10189 10196 1 0.136 402500.8
10195 10205 8 1.0 1.0 ; static  ; cg_bonded
10197 10206 1 0.135 402500.8
10213 10221 8 1.0 1.0 ; static  ; cg_bonded
10213 10231 8 1.0 1.0 ; static  ; cg_bonded
10214 10233 1 0.135 402500.8
10215 10222 1 0.136 402500.8
10221 10231 8 1.0 1.0 ; static  ; cg_bonded
10223 10232 1 0.135 402500.8
10239 10247 8 1.0 1.0 ; static  ; cg_bonded
10239 10256 8 1.0 1.0 ; static  ; cg_bonded
10240 10258 1 0.135 402500.8
10241 10248 1 0.136 402500.8
10247 10256 8 1.0 1.0 ; static  ; cg_bonded
10247 10545 8 1.0 1.0 ; chem  ; cg_bonded
10249 10257 1 0.135 402500.8
10252 10549 1 0.143 267776.0
10264 10272 8 1.0 1.0 ; static  ; cg_bonded
10264 10280 8 1.0 1.0 ; static  ; cg_bonded
10265 10282 1 0.135 402500.8
10266 10273 1 0.136 402500.8
10272 10280 8 1.0 1.0 ; static  ; cg_bonded
10274 10281 1 0.135 402500.8
10288 10296 8 1.0 1.0 ; static  ; cg_bonded
10288 10304 8 1.0 1.0 ; static  ; cg_bonded
10289 10306 1 0.135 402500.8
10290 10297 1 0.136 402500.8
10296 10304 8 1.0 1.0 ; static  ; cg_bonded
10298 10305 1 0.135 402500.8
10304 12029 8 1.0 1.0 ; chem  ; cg_bonded
10309 12033 1 0.143 267776.0
10313 10321 8 1.0 1.0 ; static  ; cg_bonded
10313 10329 8 1.0 1.0 ; static  ; cg_bonded
10314 10331 1 0.135 402500.8
10315 10322 1 0.136 402500.8
10321 10329 8 1.0 1.0 ; static  ; cg_bonded
10323 10330 1 0.135 402500.8
10337 10345 8 1.0 1.0 ; static  ; cg_bonded
10337 10353 8 1.0 1.0 ; static  ; cg_bonded
10338 10355 1 0.135 402500.8
10339 10346 1 0.136 402500.8
10345 10353 8 1.0 1.0 ; static  ; cg_bonded
10347 10354 1 0.135 402500.8
10353 10480 8 1.0 1.0 ; chem  ; cg_bonded
10358 10484 1 0.143 267776.0
10362 10370 8 1.0 1.0 ; static  ; cg_bonded
10362 10378 8 1.0 1.0 ; static  ; cg_bonded
10363 10380 1 0.135 402500.8
10364 10371 1 0.136 402500.8
10370 10378 8 1.0 1.0 ; static  ; cg_bonded
10372 10379 1 0.135 402500.8
10378 12358 8 1.0 1.0 ; chem  ; cg_bonded
10383 12362 1 0.143 267776.0
10387 10395 8 1.0 1.0 ; static  ; cg_bonded
10387 10405 8 1.0 1.0 ; static  ; cg_bonded
10388 10407 1 0.135 402500.8
10389 10396 1 0.136 402500.8
10395 10405 8 1.0 1.0 ; static  ; cg_bonded
10397 10406 1 0.135 402500.8
10413 10421 8 1.0 1.0 ; static  ; cg_bonded
10413 10429 8 1.0 1.0 ; static  ; cg_bonded
10414 10431 1 0.135 402500.8
10415 10422 1 0.136 402500.8
10421 10429 8 1.0 1.0 ; static  ; cg_bonded
10423 10430 1 0.135 402500.8
10429 10822 8 1.0 1.0 ; chem  ; cg_bonded
10434 10826 1 0.143 267776.0
10438 10448 8 1.0 1.0 ; static  ; cg_bonded
10438 10456 8 1.0 1.0 ; static  ; cg_bonded
10439 10458 1 0.135 402500.8
10440 10449 1 0.136 402500.8
10448 10456 8 1.0 1.0 ; static  ; cg_bonded
10450 10457 1 0.135 402500.8
10464 10472 8 1.0 1.0 ; static  ; cg_bonded
10464 10480 8 1.0 1.0 ; static  ; cg_bonded
10465 10482 1 0.135 402500.8
10466 10473 1 0.136 402500.8
10472 10480 8 1.0 1.0 ; static  ; cg_bonded
10474 10481 1 0.135 402500.8
10488 10496 8 1.0 1.0 ; static  ; cg_bonded
10488 10504 8 1.0 1.0 ; static  ; cg_bonded
10489 10506 1 0.135 402500.8
10490 10497 1 0.136 402500.8
10496 10504 8 1.0 1.0 ; static  ; cg_bonded
10498 10505 1 0.135 402500.8
10512 10520 8 1.0 1.0 ; static  ; cg_bonded
10512 10529 8 1.0 1.0 ; static  ; cg_bonded
10513 10531 1 0.135 402500.8
10514 10521 1 0.136 402500.8
10520 10529 8 1.0 1.0 ; static  ; cg_bonded
10520 10621 8 1.0 1.0 ; chem  ; cg_bonded
10522 10530 1 0.135 402500.8
10525 10625 1 0.143 267776.0
10537 10545 8 1.0 1.0 ; static  ; cg_bonded
10537 10553 8 1.0 1.0 ; static  ; cg_bonded
10538 10555 1 0.135 402500.8
10539 10546 1 0.136 402500.8
10545 10553 8 1.0 1.0 ; static  ; cg_bonded
10547 10554 1 0.135 402500.8
10563 10573 8 1.0 1.0 ; static  ; cg_bonded
10563 10581 8 1.0 1.0 ; static  ; cg_bonded
10564 10583 1 0.135 402500.8
10565 10574 1 0.136 402500.8
10573 10581 8 1.0 1.0 ; static  ; cg_bonded
10575 10582 1 0.135 402500.8
10589 10597 8 1.0 1.0 ; static  ; cg_bonded
10589 10605 8 1.0 1.0 ; static  ; cg_bonded
10590 10607 1 0.135 402500.8
10591 10598 1 0.136 402500.8
10597 10605 8 1.0 1.0 ; static  ; cg_bonded
10599 10606 1 0.135 402500.8
10613 10621 8 1.0 1.0 ; static  ; cg_bonded
10613 10629 8 1.0 1.0 ; static  ; cg_bonded
10614 10631 1 0.135 402500.8
10615 10622 1 0.136 402500.8
10621 10629 8 1.0 1.0 ; static  ; cg_bonded
10623 10630 1 0.135 402500.8
10639 10647 8 1.0 1.0 ; static  ; cg_bonded
10639 10655 8 1.0 1.0 ; static  ; cg_bonded
10640 10657 1 0.135 402500.8
10641 10648 1 0.136 402500.8
10647 10655 8 1.0 1.0 ; static  ; cg_bonded
10649 10656 1 0.135 402500.8
10663 10671 8 1.0 1.0 ; static  ; cg_bonded
10663 10680 8 1.0 1.0 ; static  ; cg_bonded
10664 10682 1 0.135 402500.8
10665 10672 1 0.136 402500.8
10671 10680 8 1.0 1.0 ; static  ; cg_bonded
10671 10873 8 1.0 1.0 ; chem  ; cg_bonded
10673 10681 1 0.135 402500.8
10676 10877 1 0.143 267776.0
10690 10699 8 1.0 1.0 ; static  ; cg_bonded
10690 10707 8 1.0 1.0 ; static  ; cg_bonded
10690 11479 8 1.0 1.0 ; chem  ; cg_bonded
10691 10709 1 0.135 402500.8
10692 10700 1 0.136 402500.8
10695 11483 1 0.143 267776.0
10699 10707 8 1.0 1.0 ; static  ; cg_bonded
10701 10708 1 0.135 402500.8
10715 10723 8 1.0 1.0 ; static  ; cg_bonded
10715 10732 8 1.0 1.0 ; static  ; cg_bonded
10716 10734 1 0.135 402500.8
10717 10724 1 0.136 402500.8
10723 10732 8 1.0 1.0 ; static  ; cg_bonded
10723 11405 8 1.0 1.0 ; chem  ; cg_bonded
10725 10733 1 0.135 402500.8
10728 11409 1 0.143 267776.0
10740 10748 8 1.0 1.0 ; static  ; cg_bonded
10740 10756 8 1.0 1.0 ; static  ; cg_bonded
10741 10758 1 0.135 402500.8
10742 10749 1 0.136 402500.8
10748 10756 8 1.0 1.0 ; static  ; cg_bonded
10750 10757 1 0.135 402500.8
10764 10772 8 1.0 1.0 ; static  ; cg_bonded
10764 10780 8 1.0 1.0 ; static  ; cg_bonded
10765 10782 1 0.135 402500.8
10766 10773 1 0.136 402500.8
10772 10780 8 1.0 1.0 ; static  ; cg_bonded
10774 10781 1 0.135 402500.8
10788 10796 8 1.0 1.0 ; static  ; cg_bonded
10788 10804 8 1.0 1.0 ; static  ; cg_bonded
10789 10806 1 0.135 402500.8
10790 10797 1 0.136 402500.8
10796 10804 8 1.0 1.0 ; static  ; cg_bonded
10798 10805 1 0.135 402500.8
10804 12744 8 1.0 1.0 ; chem  ; cg_bonded
10809 12748 1 0.143 267776.0
10813 10822 8 1.0 1.0 ; static  ; cg_bonded
10813 10830 8 1.0 1.0 ; static  ; cg_bonded
10813 10848 8 1.0 1.0 ; chem  ; cg_bonded
10814 10832 1 0.135 402500.8
10815 10823 1 0.136 402500.8
10818 10852 1 0.143 267776.0
10822 10830 8 1.0 1.0 ; static  ; cg_bonded
10824 10831 1 0.135 402500.8
10838 10848 8 1.0 1.0 ; static  ; cg_bonded
10838 10856 8 1.0 1.0 ; static  ; cg_bonded
10839 10858 1 0.135 402500.8
10840 10849 1 0.136 402500.8
10848 10856 8 1.0 1.0 ; static  ; cg_bonded
10850 10857 1 0.135 402500.8
10864 10873 8 1.0 1.0 ; static  ; cg_bonded
10864 10881 8 1.0 1.0 ; static  ; cg_bonded
10864 12808 8 1.0 1.0 ; chem  ; cg_bonded
10865 10883 1 0.135 402500.8
10866 10874 1 0.136 402500.8
10869 12812 1 0.143 267776.0
10873 10881 8 1.0 1.0 ; static  ; cg_bonded
10875 10882 1 0.135 402500.8
10891 10899 8 1.0 1.0 ; static  ; cg_bonded
10891 10907 8 1.0 1.0 ; static  ; cg_bonded
10892 10909 1 0.135 402500.8
10893 10900 1 0.136 402500.8
10899 10907 8 1.0 1.0 ; static  ; cg_bonded
10901 10908 1 0.135 402500.8
10915 10923 8 1.0 1.0 ; static  ; cg_bonded
10915 10931 8 1.0 1.0 ; static  ; cg_bonded
10916 10933 1 0.135 402500.8
10917 10924 1 0.136 402500.8
10923 10931 8 1.0 1.0 ; static  ; cg_bonded
10925 10932 1 0.135 402500.8
10939 10948 8 1.0 1.0 ; static  ; cg_bonded
10939 10958 8 1.0 1.0 ; static  ; cg_bonded
10939 11188 8 1.0 1.0 ; chem  ; cg_bonded
10940 10960 1 0.135 402500.8
10941 10949 1 0.136 402500.8
10944 11192 1 0.143 267776.0
10948 10958 8 1.0 1.0 ; static  ; cg_bonded
10950 10959 1 0.135 402500.8
10966 10974 8 1.0 1.0 ; static  ; cg_bonded
10966 10982 8 1.0 1.0 ; static  ; cg_bonded
10967 10984 1 0.135 402500.8
10968 10975 1 0.136 402500.8
10974 10982 8 1.0 1.0 ; static  ; cg_bonded
10976 10983 1 0.135 402500.8
10990 10998 8 1.0 1.0 ; static  ; cg_bonded
10990 11006 8 1.0 1.0 ; static  ; cg_bonded
10991 11008 1 0.135 402500.8
10992 10999 1 0.136 402500.8
10998 11006 8 1.0 1.0 ; static  ; cg_bonded
11000 11007 1 0.135 402500.8
11006 12614 8 1.0 1.0 ; chem  ; cg_bonded
11011 12618 1 0.143 267776.0
11015 11023 8 1.0 1.0 ; static  ; cg_bonded
11015 11032 8 1.0 1.0 ; static  ; cg_bonded
11016 11034 1 0.135 402500.8
11017 11024 1 0.136 402500.8
11023 11032 8 1.0 1.0 ; static  ; cg_bonded
11023 12151 8 1.0 1.0 ; chem  ; cg_bonded
11025 11033 1 0.135 402500.8
11028 12155 1 0.143 267776.0
11040 11048 8 1.0 1.0 ; static  ; cg_bonded
11040 11056 8 1.0 1.0 ; static  ; cg_bonded
11041 11058 1 0.135 402500.8
11042 11049 1 0.136 402500.8
11048 11056 8 1.0 1.0 ; static  ; cg_bonded
11050 11057 1 0.135 402500.8
11064 11072 8 1.0 1.0 ; static  ; cg_bonded
11064 11080 8 1.0 1.0 ; static  ; cg_bonded
11065 11082 1 0.135 402500.8
11066 11073 1 0.136 402500.8
11072 11080 8 1.0 1.0 ; static  ; cg_bonded
11074 11081 1 0.135 402500.8
11088 11096 8 1.0 1.0 ; static  ; cg_bonded
11088 11104 8 1.0 1.0 ; static  ; cg_bonded
11089 11106 1 0.135 402500.8
11090 11097 1 0.136 402500.8
11096 11104 8 1.0 1.0 ; static  ; cg_bonded
11098 11105 1 0.135 402500.8
11112 11120 8 1.0 1.0 ; static  ; cg_bonded
11112 11128 8 1.0 1.0 ; static  ; cg_bonded
11113 11130 1 0.135 402500.8
11114 11121 1 0.136 402500.8
11120 11128 8 1.0 1.0 ; static  ; cg_bonded
11122 11129 1 0.135 402500.8
11128 11137 8 1.0 1.0 ; chem  ; cg_bonded
11133 11141 1 0.143 267776.0
11137 11145 8 1.0 1.0 ; static  ; cg_bonded
11137 11154 8 1.0 1.0 ; static  ; cg_bonded
11138 11156 1 0.135 402500.8
11139 11146 1 0.136 402500.8
11145 11154 8 1.0 1.0 ; static  ; cg_bonded
11145 12456 8 1.0 1.0 ; chem  ; cg_bonded
11147 11155 1 0.135 402500.8
11150 12460 1 0.143 267776.0
11162 11170 8 1.0 1.0 ; static  ; cg_bonded
11162 11180 8 1.0 1.0 ; static  ; cg_bonded
11163 11182 1 0.135 402500.8
11164 11171 1 0.136 402500.8
11170 11180 8 1.0 1.0 ; static  ; cg_bonded
11172 11181 1 0.135 402500.8
11188 11196 8 1.0 1.0 ; static  ; cg_bonded
11188 11206 8 1.0 1.0 ; static  ; cg_bonded
11189 11208 1 0.135 402500.8
11190 11197 1 0.136 402500.8
11196 11206 8 1.0 1.0 ; static  ; cg_bonded
11198 11207 1 0.135 402500.8
11216 11224 8 1.0 1.0 ; static  ; cg_bonded
11216 11233 8 1.0 1.0 ; static  ; cg_bonded
11217 11235 1 0.135 402500.8
11218 11225 1 0.136 402500.8
11224 11233 8 1.0 1.0 ; static  ; cg_bonded
11224 12654 8 1.0 1.0 ; chem  ; cg_bonded
11226 11234 1 0.135 402500.8
11229 12658 1 0.143 267776.0
11243 11251 8 1.0 1.0 ; static  ; cg_bonded
11243 11259 8 1.0 1.0 ; static  ; cg_bonded
11244 11261 1 0.135 402500.8
11245 11252 1 0.136 402500.8
11251 11259 8 1.0 1.0 ; static  ; cg_bonded
11253 11260 1 0.135 402500.8
11267 11275 8 1.0 1.0 ; static  ; cg_bonded
11267 11284 8 1.0 1.0 ; static  ; cg_bonded
11268 11286 1 0.135 402500.8
11269 11276 1 0.136 402500.8
11275 11284 8 1.0 1.0 ; static  ; cg_bonded
11275 12424 8 1.0 1.0 ; chem  ; cg_bonded
11277 11285 1 0.135 402500.8
11280 12428 1 0.143 267776.0
11292 11300 8 1.0 1.0 ; static  ; cg_bonded
11292 11308 8 1.0 1.0 ; static  ; cg_bonded
11293 11310 1 0.135 402500.8
11294 11301 1 0.136 402500.8
11300 11308 8 1.0 1.0 ; static  ; cg_bonded
11302 11309 1 0.135 402500.8
11316 11324 8 1.0 1.0 ; static  ; cg_bonded
11316 11332 8 1.0 1.0 ; static  ; cg_bonded
11317 11334 1 0.135 402500.8
11318 11325 1 0.136 402500.8
11324 11332 8 1.0 1.0 ; static  ; cg_bonded
11326 11333 1 0.135 402500.8
11340 11348 8 1.0 1.0 ; static  ; cg_bonded
11340 11356 8 1.0 1.0 ; static  ; cg_bonded
11341 11358 1 0.135 402500.8
11342 11349 1 0.136 402500.8
11348 11356 8 1.0 1.0 ; static  ; cg_bonded
11350 11357 1 0.135 402500.8
11364 11372 8 1.0 1.0 ; static  ; cg_bonded
11364 11380 8 1.0 1.0 ; static  ; cg_bonded
11365 11382 1 0.135 402500.8
11366 11373 1 0.136 402500.8
11372 11380 8 1.0 1.0 ; static  ; cg_bonded
11374 11381 1 0.135 402500.8
11388 11396 8 1.0 1.0 ; static  ; cg_bonded
11388 11405 8 1.0 1.0 ; static  ; cg_bonded
11389 11407 1 0.135 402500.8
11390 11397 1 0.136 402500.8
11396 11405 8 1.0 1.0 ; static  ; cg_bonded
11396 11837 8 1.0 1.0 ; chem  ; cg_bonded
11398 11406 1 0.135 402500.8
11401 11841 1 0.143 267776.0
11413 11421 8 1.0 1.0 ; static  ; cg_bonded
11413 11429 8 1.0 1.0 ; static  ; cg_bonded
11414 11431 1 0.135 402500.8
11415 11422 1 0.136 402500.8
11421 11429 8 1.0 1.0 ; static  ; cg_bonded
11423 11430 1 0.135 402500.8
11437 11445 8 1.0 1.0 ; static  ; cg_bonded
11437 11453 8 1.0 1.0 ; static  ; cg_bonded
11438 11455 1 0.135 402500.8
11439 11446 1 0.136 402500.8
11445 11453 8 1.0 1.0 ; static  ; cg_bonded
11447 11454 1 0.135 402500.8
11461 11469 8 1.0 1.0 ; static  ; cg_bonded
11461 11479 8 1.0 1.0 ; static  ; cg_bonded
11462 11481 1 0.135 402500.8
11463 11470 1 0.136 402500.8
11469 11479 8 1.0 1.0 ; static  ; cg_bonded
11471 11480 1 0.135 402500.8
11487 11495 8 1.0 1.0 ; static  ; cg_bonded
11487 11503 8 1.0 1.0 ; static  ; cg_bonded
11488 11505 1 0.135 402500.8
11489 11496 1 0.136 402500.8
11495 11503 8 1.0 1.0 ; static  ; cg_bonded
11497 11504 1 0.135 402500.8
11511 11519 8 1.0 1.0 ; static  ; cg_bonded
11511 11529 8 1.0 1.0 ; static  ; cg_bonded
11512 11531 1 0.135 402500.8
11513 11520 1 0.136 402500.8
11519 11529 8 1.0 1.0 ; static  ; cg_bonded
11521 11530 1 0.135 402500.8
11539 11547 8 1.0 1.0 ; static  ; cg_bonded
11539 11555 8 1.0 1.0 ; static  ; cg_bonded
11540 11557 1 0.135 402500.8
11541 11548 1 0.136 402500.8
11547 11555 8 1.0 1.0 ; static  ; cg_bonded
11549 11556 1 0.135 402500.8
11555 12254 8 1.0 1.0 ; chem  ; cg_bonded
11560 12258 1 0.143 267776.0
11564 11572 8 1.0 1.0 ; static  ; cg_bonded
11564 11580 8 1.0 1.0 ; static  ; cg_bonded
11565 11582 1 0.135 402500.8
11566 11573 1 0.136 402500.8
11572 11580 8 1.0 1.0 ; static  ; cg_bonded
11574 11581 1 0.135 402500.8
11588 11596 8 1.0 1.0 ; static  ; cg_bonded
11588 11606 8 1.0 1.0 ; static  ; cg_bonded
11589 11608 1 0.135 402500.8
11590 11597 1 0.136 402500.8
11596 11606 8 1.0 1.0 ; static  ; cg_bonded
11598 11607 1 0.135 402500.8
11614 11622 8 1.0 1.0 ; static  ; cg_bonded
11614 11630 8 1.0 1.0 ; static  ; cg_bonded
11615 11632 1 0.135 402500.8
11616 11623 1 0.136 402500.8
11622 11630 8 1.0 1.0 ; static  ; cg_bonded
11624 11631 1 0.135 402500.8
11638 11646 8 1.0 1.0 ; static  ; cg_bonded
11638 11654 8 1.0 1.0 ; static  ; cg_bonded
11639 11656 1 0.135 402500.8
11640 11647 1 0.136 402500.8
11646 11654 8 1.0 1.0 ; static  ; cg_bonded
11648 11655 1 0.135 402500.8
11662 11672 8 1.0 1.0 ; static  ; cg_bonded
11662 11682 8 1.0 1.0 ; static  ; cg_bonded
11663 11684 1 0.135 402500.8
11664 11673 1 0.136 402500.8
11672 11682 8 1.0 1.0 ; static  ; cg_bonded
11674 11683 1 0.135 402500.8
11690 11698 8 1.0 1.0 ; static  ; cg_bonded
11690 11706 8 1.0 1.0 ; static  ; cg_bonded
11691 11708 1 0.135 402500.8
11692 11699 1 0.136 402500.8
11698 11706 8 1.0 1.0 ; static  ; cg_bonded
11700 11707 1 0.135 402500.8
11706 12760 8 1.0 1.0 ; chem  ; cg_bonded
11711 12764 1 0.143 267776.0
11715 11723 8 1.0 1.0 ; static  ; cg_bonded
11715 11731 8 1.0 1.0 ; static  ; cg_bonded
11716 11733 1 0.135 402500.8
11717 11724 1 0.136 402500.8
11723 11731 8 1.0 1.0 ; static  ; cg_bonded
11725 11732 1 0.135 402500.8
11739 11747 8 1.0 1.0 ; static  ; cg_bonded
11739 11755 8 1.0 1.0 ; static  ; cg_bonded
11740 11757 1 0.135 402500.8
11741 11748 1 0.136 402500.8
11747 11755 8 1.0 1.0 ; static  ; cg_bonded
11749 11756 1 0.135 402500.8
11763 11771 8 1.0 1.0 ; static  ; cg_bonded
11763 11779 8 1.0 1.0 ; static  ; cg_bonded
11764 11781 1 0.135 402500.8
11765 11772 1 0.136 402500.8
11771 11779 8 1.0 1.0 ; static  ; cg_bonded
11773 11780 1 0.135 402500.8
11787 11796 8 1.0 1.0 ; static  ; cg_bonded
11787 11804 8 1.0 1.0 ; static  ; cg_bonded
11787 12143 8 1.0 1.0 ; chem  ; cg_bonded
11788 11806 1 0.135 402500.8
11789 11797 1 0.136 402500.8
11792 12147 1 0.143 267776.0
11796 11804 8 1.0 1.0 ; static  ; cg_bonded
11798 11805 1 0.135 402500.8
11812 11820 8 1.0 1.0 ; static  ; cg_bonded
11812 11828 8 1.0 1.0 ; static  ; cg_bonded
11813 11830 1 0.135 402500.8
11814 11821 1 0.136 402500.8
11820 11828 8 1.0 1.0 ; static  ; cg_bonded
11822 11829 1 0.135 402500.8
11828 12374 8 1.0 1.0 ; chem  ; cg_bonded
11833 12378 1 0.143 267776.0
11837 11845 8 1.0 1.0 ; static  ; cg_bonded
11837 11853 8 1.0 1.0 ; static  ; cg_bonded
11838 11855 1 0.135 402500.8
11839 11846 1 0.136 402500.8
11845 11853 8 1.0 1.0 ; static  ; cg_bonded
11847 11854 1 0.135 402500.8
11853 12013 8 1.0 1.0 ; chem  ; cg_bonded
11858 12017 1 0.143 267776.0
11862 11870 8 1.0 1.0 ; static  ; cg_bonded
11862 11878 8 1.0 1.0 ; static  ; cg_bonded
11863 11880 1 0.135 402500.8
11864 11871 1 0.136 402500.8
11870 11878 8 1.0 1.0 ; static  ; cg_bonded
11872 11879 1 0.135 402500.8
11886 11894 8 1.0 1.0 ; static  ; cg_bonded
11886 11902 8 1.0 1.0 ; static  ; cg_bonded
11887 11904 1 0.135 402500.8
11888 11895 1 0.136 402500.8
11894 11902 8 1.0 1.0 ; static  ; cg_bonded
11896 11903 1 0.135 402500.8
11902 12968 8 1.0 1.0 ; chem  ; cg_bonded
11907 12972 1 0.143 267776.0
11911 11919 8 1.0 1.0 ; static  ; cg_bonded
11911 11927 8 1.0 1.0 ; static  ; cg_bonded
11912 11929 1 0.135 402500.8
11913 11920 1 0.136 402500.8
11919 11927 8 1.0 1.0 ; static  ; cg_bonded
11921 11928 1 0.135 402500.8
11927 12524 8 1.0 1.0 ; chem  ; cg_bonded
11932 12528 1 0.143 267776.0
11936 11944 8 1.0 1.0 ; static  ; cg_bonded
11936 11952 8 1.0 1.0 ; static  ; cg_bonded
11937 11954 1 0.135 402500.8
11938 11945 1 0.136 402500.8
11944 11952 8 1.0 1.0 ; static  ; cg_bonded
11946 11953 1 0.135 402500.8
11960 11968 8 1.0 1.0 ; static  ; cg_bonded
11960 11977 8 1.0 1.0 ; static  ; cg_bonded
11961 11979 1 0.135 402500.8
11962 11969 1 0.136 402500.8
11968 11977 8 1.0 1.0 ; static  ; cg_bonded
11968 12228 8 1.0 1.0 ; chem  ; cg_bonded
11970 11978 1 0.135 402500.8
11973 12232 1 0.143 267776.0
11985 11995 8 1.0 1.0 ; static  ; cg_bonded
11985 12003 8 1.0 1.0 ; static  ; cg_bonded
11986 12005 1 0.135 402500.8
11987 11996 1 0.136 402500.8
11995 12003 8 1.0 1.0 ; static  ; cg_bonded
11997 12004 1 0.135 402500.8
12013 12021 8 1.0 1.0 ; static  ; cg_bonded
12013 12029 8 1.0 1.0 ; static  ; cg_bonded
12014 12031 1 0.135 402500.8
12015 12022 1 0.136 402500.8
12021 12029 8 1.0 1.0 ; static  ; cg_bonded
12023 12030 1 0.135 402500.8
12037 12045 8 1.0 1.0 ; static  ; cg_bonded
12037 12053 8 1.0 1.0 ; static  ; cg_bonded
12038 12055 1 0.135 402500.8
12039 12046 1 0.136 402500.8
12045 12053 8 1.0 1.0 ; static  ; cg_bonded
12047 12054 1 0.135 402500.8
12061 12071 8 1.0 1.0 ; static  ; cg_bonded
12061 12079 8 1.0 1.0 ; static  ; cg_bonded
12062 12081 1 0.135 402500.8
12063 12072 1 0.136 402500.8
12071 12079 8 1.0 1.0 ; static  ; cg_bonded
12073 12080 1 0.135 402500.8
12087 12095 8 1.0 1.0 ; static  ; cg_bonded
12087 12103 8 1.0 1.0 ; static  ; cg_bonded
12088 12105 1 0.135 402500.8
12089 12096 1 0.136 402500.8
12095 12103 8 1.0 1.0 ; static  ; cg_bonded
12097 12104 1 0.135 402500.8
12111 12119 8 1.0 1.0 ; static  ; cg_bonded
12111 12127 8 1.0 1.0 ; static  ; cg_bonded
12112 12129 1 0.135 402500.8
12113 12120 1 0.136 402500.8
12119 12127 8 1.0 1.0 ; static  ; cg_bonded
12121 12128 1 0.135 402500.8
12135 12143 8 1.0 1.0 ; static  ; cg_bonded
12135 12151 8 1.0 1.0 ; static  ; cg_bonded
12136 12153 1 0.135 402500.8
12137 12144 1 0.136 402500.8
12143 12151 8 1.0 1.0 ; static  ; cg_bonded
12145 12152 1 0.135 402500.8
12159 12167 8 1.0 1.0 ; static  ; cg_bonded
12159 12175 8 1.0 1.0 ; static  ; cg_bonded
12160 12177 1 0.135 402500.8
12161 12168 1 0.136 402500.8
12167 12175 8 1.0 1.0 ; static  ; cg_bonded
12169 12176 1 0.135 402500.8
12183 12193 8 1.0 1.0 ; static  ; cg_bonded
12183 12202 8 1.0 1.0 ; static  ; cg_bonded
12184 12204 1 0.135 402500.8
12185 12194 1 0.136 402500.8
12193 12202 8 1.0 1.0 ; static  ; cg_bonded
12193 12406 8 1.0 1.0 ; chem  ; cg_bonded
12195 12203 1 0.135 402500.8
12198 12410 1 0.143 267776.0
12212 12220 8 1.0 1.0 ; static  ; cg_bonded
12212 12228 8 1.0 1.0 ; static  ; cg_bonded
12213 12230 1 0.135 402500.8
12214 12221 1 0.136 402500.8
12220 12228 8 1.0 1.0 ; static  ; cg_bonded
12222 12229 1 0.135 402500.8
12236 12246 8 1.0 1.0 ; static  ; cg_bonded
12236 12254 8 1.0 1.0 ; static  ; cg_bonded
12237 12256 1 0.135 402500.8
12238 12247 1 0.136 402500.8
12246 12254 8 1.0 1.0 ; static  ; cg_bonded
12248 12255 1 0.135 402500.8
12262 12270 8 1.0 1.0 ; static  ; cg_bonded
12262 12278 8 1.0 1.0 ; static  ; cg_bonded
12263 12280 1 0.135 402500.8
12264 12271 1 0.136 402500.8
12270 12278 8 1.0 1.0 ; static  ; cg_bonded
12272 12279 1 0.135 402500.8
12286 12294 8 1.0 1.0 ; static  ; cg_bonded
12286 12302 8 1.0 1.0 ; static  ; cg_bonded
12287 12304 1 0.135 402500.8
12288 12295 1 0.136 402500.8
12294 12302 8 1.0 1.0 ; static  ; cg_bonded
12296 12303 1 0.135 402500.8
12310 12318 8 1.0 1.0 ; static  ; cg_bonded
12310 12326 8 1.0 1.0 ; static  ; cg_bonded
12311 12328 1 0.135 402500.8
12312 12319 1 0.136 402500.8
12318 12326 8 1.0 1.0 ; static  ; cg_bonded
12320 12327 1 0.135 402500.8
12334 12342 8 1.0 1.0 ; static  ; cg_bonded
12334 12350 8 1.0 1.0 ; static  ; cg_bonded
12335 12352 1 0.135 402500.8
12336 12343 1 0.136 402500.8
12342 12350 8 1.0 1.0 ; static  ; cg_bonded
12344 12351 1 0.135 402500.8
12358 12366 8 1.0 1.0 ; static  ; cg_bonded
12358 12374 8 1.0 1.0 ; static  ; cg_bonded
12359 12376 1 0.135 402500.8
12360 12367 1 0.136 402500.8
12366 12374 8 1.0 1.0 ; static  ; cg_bonded
12368 12375 1 0.135 402500.8
12382 12390 8 1.0 1.0 ; static  ; cg_bonded
12382 12398 8 1.0 1.0 ; static  ; cg_bonded
12383 12400 1 0.135 402500.8
12384 12391 1 0.136 402500.8
12390 12398 8 1.0 1.0 ; static  ; cg_bonded
12392 12399 1 0.135 402500.8
12406 12414 8 1.0 1.0 ; static  ; cg_bonded
12406 12424 8 1.0 1.0 ; static  ; cg_bonded
12407 12426 1 0.135 402500.8
12408 12415 1 0.136 402500.8
12414 12424 8 1.0 1.0 ; static  ; cg_bonded
12416 12425 1 0.135 402500.8
12432 12440 8 1.0 1.0 ; static  ; cg_bonded
12432 12448 8 1.0 1.0 ; static  ; cg_bonded
12433 12450 1 0.135 402500.8
12434 12441 1 0.136 402500.8
12440 12448 8 1.0 1.0 ; static  ; cg_bonded
12442 12449 1 0.135 402500.8
12456 12464 8 1.0 1.0 ; static  ; cg_bonded
12456 12472 8 1.0 1.0 ; static  ; cg_bonded
12457 12474 1 0.135 402500.8
12458 12465 1 0.136 402500.8
12464 12472 8 1.0 1.0 ; static  ; cg_bonded
12466 12473 1 0.135 402500.8
12480 12488 8 1.0 1.0 ; static  ; cg_bonded
12480 12498 8 1.0 1.0 ; static  ; cg_bonded
12481 12500 1 0.135 402500.8
12482 12489 1 0.136 402500.8
12488 12498 8 1.0 1.0 ; static  ; cg_bonded
12490 12499 1 0.135 402500.8
12506 12514 8 1.0 1.0 ; static  ; cg_bonded
12506 12524 8 1.0 1.0 ; static  ; cg_bonded
12507 12526 1 0.135 402500.8
12508 12515 1 0.136 402500.8
12514 12524 8 1.0 1.0 ; static  ; cg_bonded
12516 12525 1 0.135 402500.8
12532 12540 8 1.0 1.0 ; static  ; cg_bonded
12532 12548 8 1.0 1.0 ; static  ; cg_bonded
12533 12550 1 0.135 402500.8
12534 12541 1 0.136 402500.8
12540 12548 8 1.0 1.0 ; static  ; cg_bonded
12542 12549 1 0.135 402500.8
12558 12566 8 1.0 1.0 ; static  ; cg_bonded
12558 12574 8 1.0 1.0 ; static  ; cg_bonded
12559 12576 1 0.135 402500.8
12560 12567 1 0.136 402500.8
12566 12574 8 1.0 1.0 ; static  ; cg_bonded
12568 12575 1 0.135 402500.8
12582 12590 8 1.0 1.0 ; static  ; cg_bonded
12582 12598 8 1.0 1.0 ; static  ; cg_bonded
12583 12600 1 0.135 402500.8
12584 12591 1 0.136 402500.8
12590 12598 8 1.0 1.0 ; static  ; cg_bonded
12592 12599 1 0.135 402500.8
12606 12614 8 1.0 1.0 ; static  ; cg_bonded
12606 12622 8 1.0 1.0 ; static  ; cg_bonded
12607 12624 1 0.135 402500.8
12608 12615 1 0.136 402500.8
12614 12622 8 1.0 1.0 ; static  ; cg_bonded
12616 12623 1 0.135 402500.8
12630 12638 8 1.0 1.0 ; static  ; cg_bonded
12630 12646 8 1.0 1.0 ; static  ; cg_bonded
12631 12648 1 0.135 402500.8
12632 12639 1 0.136 402500.8
12638 12646 8 1.0 1.0 ; static  ; cg_bonded
12640 12647 1 0.135 402500.8
12654 12662 8 1.0 1.0 ; static  ; cg_bonded
12654 12670 8 1.0 1.0 ; static  ; cg_bonded
12655 12672 1 0.135 402500.8
12656 12663 1 0.136 402500.8
12662 12670 8 1.0 1.0 ; static  ; cg_bonded
12664 12671 1 0.135 402500.8
12680 12688 8 1.0 1.0 ; static  ; cg_bonded
12680 12696 8 1.0 1.0 ; static  ; cg_bonded
12681 12698 1 0.135 402500.8
12682 12689 1 0.136 402500.8
12688 12696 8 1.0 1.0 ; static  ; cg_bonded
12690 12697 1 0.135 402500.8
12704 12712 8 1.0 1.0 ; static  ; cg_bonded
12704 12720 8 1.0 1.0 ; static  ; cg_bonded
12705 12722 1 0.135 402500.8
12706 12713 1 0.136 402500.8
12712 12720 8 1.0 1.0 ; static  ; cg_bonded
12714 12721 1 0.135 402500.8
12728 12736 8 1.0 1.0 ; static  ; cg_bonded
12728 12744 8 1.0 1.0 ; static  ; cg_bonded
12729 12746 1 0.135 402500.8
12730 12737 1 0.136 402500.8
12736 12744 8 1.0 1.0 ; static  ; cg_bonded
12738 12745 1 0.135 402500.8
12752 12760 8 1.0 1.0 ; static  ; cg_bonded
12752 12768 8 1.0 1.0 ; static  ; cg_bonded
12753 12770 1 0.135 402500.8
12754 12761 1 0.136 402500.8
12760 12768 8 1.0 1.0 ; static  ; cg_bonded
12762 12769 1 0.135 402500.8
12776 12784 8 1.0 1.0 ; static  ; cg_bonded
12776 12792 8 1.0 1.0 ; static  ; cg_bonded
12777 12794 1 0.135 402500.8
12778 12785 1 0.136 402500.8
12784 12792 8 1.0 1.0 ; static  ; cg_bonded
12786 12793 1 0.135 402500.8
12800 12808 8 1.0 1.0 ; static  ; cg_bonded
12800 12816 8 1.0 1.0 ; static  ; cg_bonded
12801 12818 1 0.135 402500.8
12802 12809 1 0.136 402500.8
12808 12816 8 1.0 1.0 ; static  ; cg_bonded
12810 12817 1 0.135 402500.8
12824 12832 8 1.0 1.0 ; static  ; cg_bonded
12824 12842 8 1.0 1.0 ; static  ; cg_bonded
12825 12844 1 0.135 402500.8
12826 12833 1 0.136 402500.8
12832 12842 8 1.0 1.0 ; static  ; cg_bonded
12834 12843 1 0.135 402500.8
12850 12858 8 1.0 1.0 ; static  ; cg_bonded
12850 12868 8 1.0 1.0 ; static  ; cg_bonded
12851 12870 1 0.135 402500.8
12852 12859 1 0.136 402500.8
12858 12868 8 1.0 1.0 ; static  ; cg_bonded
12860 12869 1 0.135 402500.8
12878 12886 8 1.0 1.0 ; static  ; cg_bonded
12878 12894 8 1.0 1.0 ; static  ; cg_bonded
12879 12896 1 0.135 402500.8
12880 12887 1 0.136 402500.8
12886 12894 8 1.0 1.0 ; static  ; cg_bonded
12888 12895 1 0.135 402500.8
12902 12912 8 1.0 1.0 ; static  ; cg_bonded
12902 12920 8 1.0 1.0 ; static  ; cg_bonded
12903 12922 1 0.135 402500.8
12904 12913 1 0.136 402500.8
12912 12920 8 1.0 1.0 ; static  ; cg_bonded
12914 12921 1 0.135 402500.8
12928 12936 8 1.0 1.0 ; static  ; cg_bonded
12928 12944 8 1.0 1.0 ; static  ; cg_bonded
12929 12946 1 0.135 402500.8
12930 12937 1 0.136 402500.8
12936 12944 8 1.0 1.0 ; static  ; cg_bonded
12938 12945 1 0.135 402500.8
12952 12960 8 1.0 1.0 ; static  ; cg_bonded
12952 12968 8 1.0 1.0 ; static  ; cg_bonded
12953 12970 1 0.135 402500.8
12954 12961 1 0.136 402500.8
12960 12968 8 1.0 1.0 ; static  ; cg_bonded
12962 12969 1 0.135 402500.8

[ cross_angles ]
2 3 11 1 125.237 669.440
2 21 20 1 125.010 669.440
2 21 22 1 116.164 669.440
3 2 21 1 114.807 334.720
3 11 12 1 114.843 334.720
4 3 11 1 118.788 669.440
6 5545 5544 1 109.500 418.400
6 5545 5546 1 109.500 292.880
6 5545 5547 1 109.500 292.880
11 12 20 1 124.986 669.440
12 20 21 1 115.117 334.720
13 12 20 1 118.823 669.440
15 4315 4314 1 109.500 418.400
15 4315 4316 1 109.500 292.880
15 4315 4317 1 109.500 292.880
24 4868 4867 1 109.500 418.400
24 4868 4869 1 109.500 292.880
24 4868 4870 1 109.500 292.880
29 30 38 1 125.237 669.440
29 49 48 1 125.010 669.440
29 49 50 1 116.164 669.440
30 29 49 1 114.807 334.720
30 38 39 1 114.843 334.720
31 30 38 1 118.788 669.440
33 1709 1708 1 109.500 418.400
33 1709 1710 1 109.500 292.880
33 1709 1711 1 109.500 292.880
38 39 48 1 124.986 669.440
39 48 49 1 115.117 334.720
40 39 48 1 118.823 669.440
58 59 67 1 125.237 669.440
58 77 76 1 125.010 669.440
58 77 78 1 116.164 669.440
59 58 77 1 114.807 334.720
59 67 68 1 114.843 334.720
60 59 67 1 118.788 669.440
62 4151 4150 1 109.500 418.400
62 4151 4152 1 109.500 292.880
62 4151 4153 1 109.500 292.880
67 68 76 1 124.986 669.440
68 76 77 1 115.117 334.720
69 68 76 1 118.823 669.440
71 11735 11734 1 109.500 418.400
71 11735 11736 1 109.500 292.880
71 11735 11737 1 109.500 292.880
80 8330 8329 1 109.500 418.400
80 8330 8331 1 109.500 292.880
80 8330 8332 1 109.500 292.880
85 86 94 1 125.237 669.440
85 105 104 1 125.010 669.440
85 105 106 1 116.164 669.440
86 85 105 1 114.807 334.720
86 94 95 1 114.843 334.720
87 86 94 1 118.788 669.440
89 4964 4963 1 109.500 418.400
89 4964 4965 1 109.500 292.880
89 4964 4966 1 109.500 292.880
94 95 104 1 124.986 669.440
95 104 105 1 115.117 334.720
96 95 104 1 118.823 669.440
108 726 725 1 109.500 418.400
108 726 727 1 109.500 292.880
108 726 728 1 109.500 292.880
113 114 122 1 125.237 669.440
113 132 131 1 125.010 669.440
113 132 133 1 116.164 669.440
114 113 132 1 114.807 334.720
114 122 123 1 114.843 334.720
115 114 122 1 118.788 669.440
117 2696 2695 1 109.500 418.400
117 2696 2697 1 109.500 292.880
117 2696 2698 1 109.500 292.880
122 123 131 1 124.986 669.440
123 131 132 1 115.117 334.720
124 123 131 1 118.823 669.440
126 1701 1700 1 109.500 418.400
126 1701 1702 1 109.500 292.880
126 1701 1703 1 109.500 292.880
135 2426 2425 1 109.500 418.400
135 2426 2427 1 109.500 292.880
135 2426 2428 1 109.500 292.880
140 141 149 1 125.237 669.440
140 159 158 1 125.010 669.440
140 159 160 1 116.164 669.440
141 140 159 1 114.807 334.720
141 149 150 1 114.843 334.720
142 141 149 1 118.788 669.440
144 9342 9341 1 109.500 418.400
144 9342 9343 1 109.500 292.880
144 9342 9344 1 109.500 292.880
149 150 158 1 124.986 669.440
150 158 159 1 115.117 334.720
151 150 158 1 118.823 669.440
153 10508 10507 1 109.500 418.400
153 10508 10509 1 109.500 292.880
153 10508 10510 1 109.500 292.880
162 10703 10702 1 109.500 418.400
162 10703 10704 1 109.500 292.880
162 10703 10705 1 109.500 292.880
167 168 176 1 125.237 669.440
167 186 185 1 125.010 669.440
167 186 187 1 116.164 669.440
168 167 186 1 114.807 334.720
168 176 177 1 114.843 334.720
169 168 176 1 118.788 669.440
171 12650 12649 1 109.500 418.400
171 12650 12651 1 109.500 292.880
171 12650 12652 1 109.500 292.880
176 177 185 1 124.986 669.440
177 185 186 1 115.117 334.720
178 177 185 1 118.823 669.440
180 3815 3814 1 109.500 418.400
180 3815 3816 1 109.500 292.880
180 3815 3817 1 109.500 292.880
189 9704 9703 1 109.500 418.400
189 9704 9705 1 109.500 292.880
189 9704 9706 1 109.500 292.880
194 195 203 1 125.237 669.440
194 213 212 1 125.010 669.440
194 213 214 1 116.164 669.440
195 194 213 1 114.807 334.720
195 203 204 1 114.843 334.720
196 195 203 1 118.788 669.440
198 12290 12289 1 109.500 418.400
198 12290 12291 1 109.500 292.880
198 12290 12292 1 109.500 292.880
203 204 212 1 124.986 669.440
204 212 213 1 115.117 334.720
205 204 212 1 118.823 669.440
207 3509 3508 1 109.500 418.400
207 3509 3510 1 109.500 292.880
207 3509 3511 1 109.500 292.880
222 223 231 1 125.237 669.440
222 241 240 1 125.010 669.440
222 241 242 1 116.164 669.440
223 222 241 1 114.807 334.720
223 231 232 1 114.843 334.720
224 223 231 1 118.788 669.440
226 8853 8852 1 109.500 418.400
226 8853 8854 1 109.500 292.880
226 8853 8855 1 109.500 292.880
231 232 240 1 124.986 669.440
232 240 241 1 115.117 334.720
233 232 240 1 118.823 669.440
235 6440 6439 1 109.500 418.400
235 6440 6441 1 109.500 292.880
235 6440 6442 1 109.500 292.880
244 7824 7823 1 109.500 418.400
244 7824 7825 1 109.500 292.880
244 7824 7826 1 109.500 292.880
249 250 259 1 125.237 669.440
249 269 268 1 125.010 669.440
249 269 270 1 116.164 669.440
250 249 269 1 114.807 334.720
250 259 260 1 114.843 334.720
251 250 259 1 118.788 669.440
259 260 268 1 124.986 669.440
260 268 269 1 115.117 334.720
261 260 268 1 118.823 669.440
263 3106 3105 1 109.500 418.400
263 3106 3107 1 109.500 292.880
263 3106 3108 1 109.500 292.880
272 4072 4071 1 109.500 418.400
272 4072 4073 1 109.500 292.880
272 4072 4074 1 109.500 292.880
277 278 286 1 125.237 669.440
277 296 295 1 125.010 669.440
277 296 297 1 116.164 669.440
278 277 296 1 114.807 334.720
278 286 287 1 114.843 334.720
279 278 286 1 118.788 669.440
281 7799 7798 1 109.500 418.400
281 7799 7800 1 109.500 292.880
281 7799 7801 1 109.500 292.880
286 287 295 1 124.986 669.440
287 295 296 1 115.117 334.720
288 287 295 1 118.823 669.440
290 2102 2101 1 109.500 418.400
290 2102 2103 1 109.500 292.880
290 2102 2104 1 109.500 292.880
299 7271 7270 1 109.500 418.400
299 7271 7272 1 109.500 292.880
299 7271 7273 1 109.500 292.880
304 305 313 1 125.237 669.440
304 323 322 1 125.010 669.440
304 323 324 1 116.164 669.440
305 304 323 1 114.807 334.720
305 313 314 1 114.843 334.720
306 305 313 1 118.788 669.440
308 5371 5370 1 109.500 418.400
308 5371 5372 1 109.500 292.880
308 5371 5373 1 109.500 292.880
313 314 322 1 124.986 669.440
314 322 323 1 115.117 334.720
315 314 322 1 118.823 669.440
317 8870 8869 1 109.500 418.400
317 8870 8871 1 109.500 292.880
317 8870 8872 1 109.500 292.880
326 4491 4490 1 109.500 418.400
326 4491 4492 1 109.500 292.880
326 4491 4493 1 109.500 292.880
331 332 340 1 125.237 669.440
331 351 350 1 125.010 669.440
331 351 352 1 116.164 669.440
332 331 351 1 114.807 334.720
332 340 341 1 114.843 334.720
333 332 340 1 118.788 669.440
335 3174 3173 1 109.500 418.400
335 3174 3175 1 109.500 292.880
335 3174 3176 1 109.500 292.880
340 341 350 1 124.986 669.440
341 350 351 1 115.117 334.720
342 341 350 1 118.823 669.440
354 799 798 1 109.500 418.400
354 799 800 1 109.500 292.880
354 799 801 1 109.500 292.880
359 360 368 1 125.237 669.440
359 379 378 1 125.010 669.440
359 379 380 1 116.164 669.440
360 359 379 1 114.807 334.720
360 368 369 1 114.843 334.720
361 360 368 1 118.788 669.440
363 8811 8810 1 109.500 418.400
363 8811 8812 1 109.500 292.880
363 8811 8813 1 109.500 292.880
368 369 378 1 124.986 669.440
369 378 379 1 115.117 334.720
370 369 378 1 118.823 669.440
382 6065 6064 1 109.500 418.400
382 6065 6066 1 109.500 292.880
382 6065 6067 1 109.500 292.880
387 388 396 1 125.237 669.440
387 407 406 1 125.010 669.440
387 407 408 1 116.164 669.440
388 387 407 1 114.807 334.720
388 396 397 1 114.843 334.720
389 388 396 1 118.788 669.440
391 12854 12853 1 109.500 418.400
391 12854 12855 1 109.500 292.880
391 12854 12856 1 109.500 292.880
396 397 406 1 124.986 669.440
397 406 407 1 115.117 334.720
398 397 406 1 118.823 669.440
410 10191 10190 1 109.500 418.400
410 10191 10192 1 109.500 292.880
410 10191 10193 1 109.500 292.880
415 416 424 1 125.237 669.440
415 434 433 1 125.010 669.440
415 434 435 1 116.164 669.440
416 415 434 1 114.807 334.720
416 424 425 1 114.843 334.720
417 416 424 1 118.788 669.440
419 3157 3156 1 109.500 418.400
419 3157 3158 1 109.500 292.880
419 3157 3159 1 109.500 292.880
424 425 433 1 124.986 669.440
425 433 434 1 115.117 334.720
426 425 433 1 118.823 669.440
428 9680 9679 1 109.500 418.400
428 9680 9681 1 109.500 292.880
428 9680 9682 1 109.500 292.880
437 11694 11693 1 109.500 418.400
437 11694 11695 1 109.500 292.880
437 11694 11696 1 109.500 292.880
442 443 451 1 125.237 669.440
442 461 460 1 125.010 669.440
442 461 462 1 116.164 669.440
443 442 461 1 114.807 334.720
443 451 452 1 114.843 334.720
444 443 451 1 118.788 669.440
446 5026 5025 1 109.500 418.400
446 5026 5027 1 109.500 292.880
446 5026 5028 1 109.500 292.880
451 452 460 1 124.986 669.440
452 460 461 1 115.117 334.720
453 452 460 1 118.823 669.440
455 7772 7771 1 109.500 418.400
455 7772 7773 1 109.500 292.880
455 7772 7774 1 109.500 292.880
464 526 525 1 109.500 418.400
464 526 527 1 109.500 292.880
464 526 528 1 109.500 292.880
469 470 478 1 125.237 669.440
469 488 487 1 125.010 669.440
469 488 489 1 116.164 669.440
470 469 488 1 114.807 334.720
470 478 479 1 114.843 334.720
471 470 478 1 118.788 669.440
473 4799 4798 1 109.500 418.400
473 4799 4800 1 109.500 292.880
473 4799 4801 1 109.500 292.880
478 479 487 1 124.986 669.440
479 487 488 1 115.117 334.720
480 479 487 1 118.823 669.440
482 7065 7064 1 109.500 418.400
482 7065 7066 1 109.500 292.880
482 7065 7067 1 109.500 292.880
491 11507 11506 1 109.500 418.400
491 11507 11508 1 109.500 292.880
491 11507 11509 1 109.500 292.880
496 497 505 1 125.237 669.440
496 515 514 1 125.010 669.440
496 515 516 1 116.164 669.440
497 496 515 1 114.807 334.720
497 505 506 1 114.843 334.720
498 497 505 1 118.788 669.440
500 8699 8698 1 109.500 418.400
500 8699 8700 1 109.500 292.880
500 8699 8701 1 109.500 292.880
505 506 514 1 124.986 669.440
506 514 515 1 115.117 334.720
507 506 514 1 118.823 669.440
509 8161 8160 1 109.500 418.400
509 8161 8162 1 109.500 292.880
509 8161 8163 1 109.500 292.880
518 7609 7608 1 109.500 418.400
518 7609 7610 1 109.500 292.880
518 7609 7611 1 109.500 292.880
523 524 531 1 125.237 669.440
523 541 540 1 125.010 669.440
523 541 542 1 116.164 669.440
524 523 541 1 114.807 334.720
524 531 532 1 114.843 334.720
525 524 531 1 118.788 669.440
526 464 463 1 109.500 502.080
531 532 540 1 124.986 669.440
532 540 541 1 115.117 334.720
533 532 540 1 118.823 669.440
535 9630 9629 1 109.500 418.400
535 9630 9631 1 109.500 292.880
535 9630 9632 1 109.500 292.880
544 7721 7720 1 109.500 418.400
544 7721 7722 1 109.500 292.880
544 7721 7723 1 109.500 292.880
549 550 558 1 125.237 669.440
549 569 568 1 125.010 669.440
549 569 570 1 116.164 669.440
550 549 569 1 114.807 334.720
550 558 559 1 114.843 334.720
551 550 558 1 118.788 669.440
553 3976 3975 1 109.500 418.400
553 3976 3977 1 109.500 292.880
553 3976 3978 1 109.500 292.880
558 559 568 1 124.986 669.440
559 568 569 1 115.117 334.720
560 559 568 1 118.823 669.440
572 11092 11091 1 109.500 418.400
572 11092 11093 1 109.500 292.880
572 11092 11094 1 109.500 292.880
577 578 586 1 125.237 669.440
577 596 595 1 125.010 669.440
577 596 597 1 116.164 669.440
578 577 596 1 114.807 334.720
578 586 587 1 114.843 334.720
579 578 586 1 118.788 669.440
581 4525 4524 1 109.500 418.400
581 4525 4526 1 109.500 292.880
581 4525 4527 1 109.500 292.880
586 587 595 1 124.986 669.440
587 595 596 1 115.117 334.720
588 587 595 1 118.823 669.440
590 10970 10969 1 109.500 418.400
590 10970 10971 1 109.500 292.880
590 10970 10972 1 109.500 292.880
599 6520 6519 1 109.500 418.400
599 6520 6521 1 109.500 292.880
599 6520 6522 1 109.500 292.880
604 605 613 1 125.237 669.440
604 624 623 1 125.010 669.440
604 624 625 1 116.164 669.440
605 604 624 1 114.807 334.720
605 613 614 1 114.843 334.720
606 605 613 1 118.788 669.440
608 1109 1108 1 109.500 418.400
608 1109 1110 1 109.500 292.880
608 1109 1111 1 109.500 292.880
613 614 623 1 124.986 669.440
614 623 624 1 115.117 334.720
615 614 623 1 118.823 669.440
627 1260 1259 1 109.500 418.400
627 1260 1261 1 109.500 292.880
627 1260 1262 1 109.500 292.880
632 633 641 1 125.237 669.440
632 651 650 1 125.010 669.440
632 651 652 1 116.164 669.440
633 632 651 1 114.807 334.720
633 641 642 1 114.843 334.720
634 633 641 1 118.788 669.440
636 11425 11424 1 109.500 418.400
636 11425 11426 1 109.500 292.880
636 11425 11427 1 109.500 292.880
641 642 650 1 124.986 669.440
642 650 651 1 115.117 334.720
643 642 650 1 118.823 669.440
645 5605 5604 1 109.500 418.400
645 5605 5606 1 109.500 292.880
645 5605 5607 1 109.500 292.880
654 2784 2783 1 109.500 418.400
654 2784 2785 1 109.500 292.880
654 2784 2786 1 109.500 292.880
659 660 668 1 125.237 669.440
659 678 677 1 125.010 669.440
659 678 679 1 116.164 669.440
660 659 678 1 114.807 334.720
660 668 669 1 114.843 334.720
661 660 668 1 118.788 669.440
663 4912 4911 1 109.500 418.400
663 4912 4913 1 109.500 292.880
663 4912 4914 1 109.500 292.880
668 669 677 1 124.986 669.440
669 677 678 1 115.117 334.720
670 669 677 1 118.823 669.440
672 1207 1206 1 109.500 418.400
672 1207 1208 1 109.500 292.880
672 1207 1209 1 109.500 292.880
681 8888 8887 1 109.500 418.400
681 8888 8889 1 109.500 292.880
681 8888 8890 1 109.500 292.880
686 687 696 1 125.237 669.440
686 706 705 1 125.010 669.440
686 706 707 1 116.164 669.440
687 686 706 1 114.807 334.720
687 696 697 1 114.843 334.720
688 687 696 1 118.788 669.440
696 697 705 1 124.986 669.440
697 705 706 1 115.117 334.720
698 697 705 1 118.823 669.440
700 5892 5891 1 109.500 418.400
700 5892 5893 1 109.500 292.880
700 5892 5894 1 109.500 292.880
709 879 878 1 109.500 418.400
709 879 880 1 109.500 292.880
709 879 881 1 109.500 292.880
714 715 723 1 125.237 669.440
714 732 731 1 125.010 669.440
714 732 733 1 116.164 669.440
715 714 732 1 114.807 334.720
715 723 724 1 114.843 334.720
716 715 723 1 118.788 669.440
718 9065 9064 1 109.500 418.400
718 9065 9066 1 109.500 292.880
718 9065 9067 1 109.500 292.880
723 724 731 1 124.986 669.440
724 731 732 1 115.117 334.720
725 724 731 1 118.823 669.440
726 108 107 1 109.500 502.080
735 6815 6814 1 109.500 418.400
735 6815 6816 1 109.500 292.880
735 6815 6817 1 109.500 292.880
740 741 749 1 125.237 669.440
740 760 759 1 125.010 669.440
740 760 761 1 116.164 669.440
741 740 760 1 114.807 334.720
741 749 750 1 114.843 334.720
742 741 749 1 118.788 669.440
744 3044 3043 1 109.500 418.400
744 3044 3045 1 109.500 292.880
744 3044 3046 1 109.500 292.880
749 750 759 1 124.986 669.440
750 759 760 1 115.117 334.720
751 750 759 1 118.823 669.440
769 770 778 1 125.237 669.440
769 788 787 1 125.010 669.440
769 788 789 1 116.164 669.440
770 769 788 1 114.807 334.720
770 778 779 1 114.843 334.720
771 770 778 1 118.788 669.440
773 10800 10799 1 109.500 418.400
773 10800 10801 1 109.500 292.880
773 10800 10802 1 109.500 292.880
778 779 787 1 124.986 669.440
779 787 788 1 115.117 334.720
780 779 787 1 118.823 669.440
782 3579 3578 1 109.500 418.400
782 3579 3580 1 109.500 292.880
782 3579 3581 1 109.500 292.880
791 6528 6527 1 109.500 418.400
791 6528 6529 1 109.500 292.880
791 6528 6530 1 109.500 292.880
796 797 804 1 125.237 669.440
796 814 813 1 125.010 669.440
796 814 815 1 116.164 669.440
797 796 814 1 114.807 334.720
797 804 805 1 114.843 334.720
798 797 804 1 118.788 669.440
799 354 353 1 109.500 502.080
804 805 813 1 124.986 669.440
805 813 814 1 115.117 334.720
806 805 813 1 118.823 669.440
808 9638 9637 1 109.500 418.400
808 9638 9639 1 109.500 292.880
808 9638 9640 1 109.500 292.880
817 6789 6788 1 109.500 418.400
817 6789 6790 1 109.500 292.880
817 6789 6791 1 109.500 292.880
822 823 831 1 125.237 669.440
822 841 840 1 125.010 669.440
822 841 842 1 116.164 669.440
823 822 841 1 114.807 334.720
823 831 832 1 114.843 334.720
824 823 831 1 118.788 669.440
826 8136 8135 1 109.500 418.400
826 8136 8137 1 109.500 292.880
826 8136 8138 1 109.500 292.880
831 832 840 1 124.986 669.440
832 840 841 1 115.117 334.720
833 832 840 1 118.823 669.440
835 10243 10242 1 109.500 418.400
835 10243 10244 1 109.500 292.880
835 10243 10245 1 109.500 292.880
844 4709 4708 1 109.500 418.400
844 4709 4710 1 109.500 292.880
844 4709 4711 1 109.500 292.880
849 850 858 1 125.237 669.440
849 868 867 1 125.010 669.440
849 868 869 1 116.164 669.440
850 849 868 1 114.807 334.720
850 858 859 1 114.843 334.720
851 850 858 1 118.788 669.440
853 9225 9224 1 109.500 418.400
853 9225 9226 1 109.500 292.880
853 9225 9227 1 109.500 292.880
858 859 867 1 124.986 669.440
859 867 868 1 115.117 334.720
860 859 867 1 118.823 669.440
862 11727 11726 1 109.500 418.400
862 11727 11728 1 109.500 292.880
862 11727 11729 1 109.500 292.880
871 1424 1423 1 109.500 418.400
871 1424 1425 1 109.500 292.880
871 1424 1426 1 109.500 292.880
876 877 884 1 125.237 669.440
876 894 893 1 125.010 669.440
876 894 895 1 116.164 669.440
877 876 894 1 114.807 334.720
877 884 885 1 114.843 334.720
878 877 884 1 118.788 669.440
879 709 708 1 109.500 502.080
884 885 893 1 124.986 669.440
885 893 894 1 115.117 334.720
886 885 893 1 118.823 669.440
888 9737 9736 1 109.500 418.400
888 9737 9738 1 109.500 292.880
888 9737 9739 1 109.500 292.880
903 904 912 1 125.237 669.440
903 922 921 1 125.010 669.440
903 922 923 1 116.164 669.440
904 903 922 1 114.807 334.720
904 912 913 1 114.843 334.720
905 904 912 1 118.788 669.440
907 9394 9393 1 109.500 418.400
907 9394 9395 1 109.500 292.880
907 9394 9396 1 109.500 292.880
912 913 921 1 124.986 669.440
913 921 922 1 115.117 334.720
914 913 921 1 118.823 669.440
916 3052 3051 1 109.500 418.400
916 3052 3053 1 109.500 292.880
916 3052 3054 1 109.500 292.880
925 11915 11914 1 109.500 418.400
925 11915 11916 1 109.500 292.880
925 11915 11917 1 109.500 292.880
930 931 939 1 125.237 669.440
930 949 948 1 125.010 669.440
930 949 950 1 116.164 669.440
931 930 949 1 114.807 334.720
931 939 940 1 114.843 334.720
932 931 939 1 118.788 669.440
934 5589 5588 1 109.500 418.400
934 5589 5590 1 109.500 292.880
934 5589 5591 1 109.500 292.880
939 940 948 1 124.986 669.440
940 948 949 1 115.117 334.720
941 940 948 1 118.823 669.440
943 5597 5596 1 109.500 418.400
943 5597 5598 1 109.500 292.880
943 5597 5599 1 109.500 292.880
952 2364 2363 1 109.500 418.400
952 2364 2365 1 109.500 292.880
952 2364 2366 1 109.500 292.880
957 958 966 1 125.237 669.440
957 977 976 1 125.010 669.440
957 977 978 1 116.164 669.440
958 957 977 1 114.807 334.720
958 966 967 1 114.843 334.720
959 958 966 1 118.788 669.440
961 11166 11165 1 109.500 418.400
961 11166 11167 1 109.500 292.880
961 11166 11168 1 109.500 292.880
966 967 976 1 124.986 669.440
967 976 977 1 115.117 334.720
968 967 976 1 118.823 669.440
986 987 996 1 125.237 669.440
986 1006 1005 1 125.010 669.440
986 1006 1007 1 116.164 669.440
987 986 1006 1 114.807 334.720
987 996 997 1 114.843 334.720
988 987 996 1 118.788 669.440
996 997 1005 1 124.986 669.440
997 1005 1006 1 115.117 334.720
998 997 1005 1 118.823 669.440
1000 12452 12451 1 109.500 418.400
1000 12452 12453 1 109.500 292.880
1000 12452 12454 1 109.500 292.880
1009 12898 12897 1 109.500 418.400
1009 12898 12899 1 109.500 292.880
1009 12898 12900 1 109.500 292.880
1014 1015 1023 1 125.237 669.440
1014 1033 1032 1 125.010 669.440
1014 1033 1034 1 116.164 669.440
1015 1014 1033 1 114.807 334.720
1015 1023 1024 1 114.843 334.720
1016 1015 1023 1 118.788 669.440
1018 5718 5717 1 109.500 418.400
1018 5718 5719 1 109.500 292.880
1018 5718 5720 1 109.500 292.880
1023 1024 1032 1 124.986 669.440
1024 1032 1033 1 115.117 334.720
1025 1024 1032 1 118.823 669.440
1027 11271 11270 1 109.500 418.400
1027 11271 11272 1 109.500 292.880
1027 11271 11273 1 109.500 292.880
1036 9853 9852 1 109.500 418.400
1036 9853 9854 1 109.500 292.880
1036 9853 9855 1 109.500 292.880
1041 1042 1050 1 125.237 669.440
1041 1060 1059 1 125.010 669.440
1041 1060 1061 1 116.164 669.440
1042 1041 1060 1 114.807 334.720
1042 1050 1051 1 114.843 334.720
1043 1042 1050 1 118.788 669.440
1045 4080 4079 1 109.500 418.400
1045 4080 4081 1 109.500 292.880
1045 4080 4082 1 109.500 292.880
1050 1051 1059 1 124.986 669.440
1051 1059 1060 1 115.117 334.720
1052 1051 1059 1 118.823 669.440
1054 5952 5951 1 109.500 418.400
1054 5952 5953 1 109.500 292.880
1054 5952 5954 1 109.500 292.880
1063 10719 10718 1 109.500 418.400
1063 10719 10720 1 109.500 292.880
1063 10719 10721 1 109.500 292.880
1068 1069 1078 1 125.237 669.440
1068 1088 1087 1 125.010 669.440
1068 1088 1089 1 116.164 669.440
1069 1068 1088 1 114.807 334.720
1069 1078 1079 1 114.843 334.720
1070 1069 1078 1 118.788 669.440
1078 1079 1087 1 124.986 669.440
1079 1087 1088 1 115.117 334.720
1080 1079 1087 1 118.823 669.440
1082 3149 3148 1 109.500 418.400
1082 3149 3150 1 109.500 292.880
1082 3149 3151 1 109.500 292.880
1097 1098 1106 1 125.237 669.440
1097 1115 1114 1 125.010 669.440
1097 1115 1116 1 116.164 669.440
1098 1097 1115 1 114.807 334.720
1098 1106 1107 1 114.843 334.720
1099 1098 1106 1 118.788 669.440
1101 3638 3637 1 109.500 418.400
1101 3638 3639 1 109.500 292.880
1101 3638 3640 1 109.500 292.880
1106 1107 1114 1 124.986 669.440
1107 1114 1115 1 115.117 334.720
1108 1107 1114 1 118.823 669.440
1109 608 607 1 109.500 502.080
1118 5179 5178 1 109.500 418.400
1118 5179 5180 1 109.500 292.880
1118 5179 5181 1 109.500 292.880
1123 1124 1132 1 125.237 669.440
1123 1142 1141 1 125.010 669.440
1123 1142 1143 1 116.164 669.440
1124 1123 1142 1 114.807 334.720
1124 1132 1133 1 114.843 334.720
1125 1124 1132 1 118.788 669.440
1127 7504 7503 1 109.500 418.400
1127 7504 7505 1 109.500 292.880
1127 7504 7506 1 109.500 292.880
1132 1133 1141 1 124.986 669.440
1133 1141 1142 1 115.117 334.720
1134 1133 1141 1 118.823 669.440
1136 8634 8633 1 109.500 418.400
1136 8634 8635 1 109.500 292.880
1136 8634 8636 1 109.500 292.880
1145 9836 9835 1 109.500 418.400
1145 9836 9837 1 109.500 292.880
1145 9836 9838 1 109.500 292.880
1150 1151 1159 1 125.237 669.440
1150 1169 1168 1 125.010 669.440
1150 1169 1170 1 116.164 669.440
1151 1150 1169 1 114.807 334.720
1151 1159 1160 1 114.843 334.720
1152 1151 1159 1 118.788 669.440
1154 3019 3018 1 109.500 418.400
1154 3019 3020 1 109.500 292.880
1154 3019 3021 1 109.500 292.880
1159 1160 1168 1 124.986 669.440
1160 1168 1169 1 115.117 334.720
1161 1160 1168 1 118.823 669.440
1163 8566 8565 1 109.500 418.400
1163 8566 8567 1 109.500 292.880
1163 8566 8568 1 109.500 292.880
1172 7747 7746 1 109.500 418.400
1172 7747 7748 1 109.500 292.880
1172 7747 7749 1 109.500 292.880
1177 1178 1186 1 125.237 669.440
1177 1196 1195 1 125.010 669.440
1177 1196 1197 1 116.164 669.440
1178 1177 1196 1 114.807 334.720
1178 1186 1187 1 114.843 334.720
1179 1178 1186 1 118.788 669.440
1181 1924 1923 1 109.500 418.400
1181 1924 1925 1 109.500 292.880
1181 1924 1926 1 109.500 292.880
1186 1187 1195 1 124.986 669.440
1187 1195 1196 1 115.117 334.720
1188 1187 1195 1 118.823 669.440
1190 5935 5934 1 109.500 418.400
1190 5935 5936 1 109.500 292.880
1190 5935 5937 1 109.500 292.880
1199 12796 12795 1 109.500 418.400
1199 12796 12797 1 109.500 292.880
1199 12796 12798 1 109.500 292.880
1204 1205 1212 1 125.237 669.440
1204 1222 1221 1 125.010 669.440
1204 1222 1223 1 116.164 669.440
1205 1204 1222 1 114.807 334.720
1205 1212 1213 1 114.843 334.720
1206 1205 1212 1 118.788 669.440
1207 672 671 1 109.500 502.080
1212 1213 1221 1 124.986 669.440
1213 1221 1222 1 115.117 334.720
1214 1213 1221 1 118.823 669.440
1216 5233 5232 1 109.500 418.400
1216 5233 5234 1 109.500 292.880
1216 5233 5235 1 109.500 292.880
1225 7057 7056 1 109.500 418.400
1225 7057 7058 1 109.500 292.880
1225 7057 7059 1 109.500 292.880
1230 1231 1239 1 125.237 669.440
1230 1249 1248 1 125.010 669.440
1230 1249 1250 1 116.164 669.440
1231 1230 1249 1 114.807 334.720
1231 1239 1240 1 114.843 334.720
1232 1231 1239 1 118.788 669.440
1234 9184 9183 1 109.500 418.400
1234 9184 9185 1 109.500 292.880
1234 9184 9186 1 109.500 292.880
1239 1240 1248 1 124.986 669.440
1240 1248 1249 1 115.117 334.720
1241 1240 1248 1 118.823 669.440
1243 8674 8673 1 109.500 418.400
1243 8674 8675 1 109.500 292.880
1243 8674 8676 1 109.500 292.880
1252 2533 2532 1 109.500 418.400
1252 2533 2534 1 109.500 292.880
1252 2533 2535 1 109.500 292.880
1257 1258 1265 1 125.237 669.440
1257 1275 1274 1 125.010 669.440
1257 1275 1276 1 116.164 669.440
1258 1257 1275 1 114.807 334.720
1258 1265 1266 1 114.843 334.720
1259 1258 1265 1 118.788 669.440
1260 627 626 1 109.500 502.080
1265 1266 1274 1 124.986 669.440
1266 1274 1275 1 115.117 334.720
1267 1266 1274 1 118.823 669.440
1269 7477 7476 1 109.500 418.400
1269 7477 7478 1 109.500 292.880
1269 7477 7479 1 109.500 292.880
1284 1285 1293 1 125.237 669.440
1284 1303 1302 1 125.010 669.440
1284 1303 1304 1 116.164 669.440
1285 1284 1303 1 114.807 334.720
1285 1293 1294 1 114.843 334.720
1286 1285 1293 1 118.788 669.440
1288 3317 3316 1 109.500 418.400
1288 3317 3318 1 109.500 292.880
1288 3317 3319 1 109.500 292.880
1293 1294 1302 1 124.986 669.440
1294 1302 1303 1 115.117 334.720
1295 1294 1302 1 118.823 669.440
1297 1558 1557 1 109.500 418.400
1297 1558 1559 1 109.500 292.880
1297 1558 1560 1 109.500 292.880
1306 6370 6369 1 109.500 418.400
1306 6370 6371 1 109.500 292.880
1306 6370 6372 1 109.500 292.880
1311 1312 1320 1 125.237 669.440
1311 1330 1329 1 125.010 669.440
1311 1330 1331 1 116.164 669.440
1312 1311 1330 1 114.807 334.720
1312 1320 1321 1 114.843 334.720
1313 1312 1320 1 118.788 669.440
1315 11376 11375 1 109.500 418.400
1315 11376 11377 1 109.500 292.880
1315 11376 11378 1 109.500 292.880
1320 1321 1329 1 124.986 669.440
1321 1329 1330 1 115.117 334.720
1322 1321 1329 1 118.823 669.440
1324 9606 9605 1 109.500 418.400
1324 9606 9607 1 109.500 292.880
1324 9606 9608 1 109.500 292.880
1333 5710 5709 1 109.500 418.400
1333 5710 5711 1 109.500 292.880
1333 5710 5712 1 109.500 292.880
1338 1339 1347 1 125.237 669.440
1338 1357 1356 1 125.010 669.440
1338 1357 1358 1 116.164 669.440
1339 1338 1357 1 114.807 334.720
1339 1347 1348 1 114.843 334.720
1340 1339 1347 1 118.788 669.440
1342 9954 9953 1 109.500 418.400
1342 9954 9955 1 109.500 292.880
1342 9954 9956 1 109.500 292.880
1347 1348 1356 1 124.986 669.440
1348 1356 1357 1 115.117 334.720
1349 1348 1356 1 118.823 669.440
1351 3798 3797 1 109.500 418.400
1351 3798 3799 1 109.500 292.880
1351 3798 3800 1 109.500 292.880
1366 1367 1375 1 125.237 669.440
1366 1385 1384 1 125.010 669.440
1366 1385 1386 1 116.164 669.440
1367 1366 1385 1 114.807 334.720
1367 1375 1376 1 114.843 334.720
1368 1367 1375 1 118.788 669.440
1370 2471 2470 1 109.500 418.400
1370 2471 2472 1 109.500 292.880
1370 2471 2473 1 109.500 292.880
1375 1376 1384 1 124.986 669.440
1376 1384 1385 1 115.117 334.720
1377 1376 1384 1 118.823 669.440
1379 2879 2878 1 109.500 418.400
1379 2879 2880 1 109.500 292.880
1379 2879 2881 1 109.500 292.880
1388 4279 4278 1 109.500 418.400
1388 4279 4280 1 109.500 292.880
1388 4279 4281 1 109.500 292.880
1393 1394 1402 1 125.237 669.440
1393 1413 1412 1 125.010 669.440
1393 1413 1414 1 116.164 669.440
1394 1393 1413 1 114.807 334.720
1394 1402 1403 1 114.843 334.720
1395 1394 1402 1 118.788 669.440
1397 12804 12803 1 109.500 418.400
1397 12804 12805 1 109.500 292.880
1397 12804 12806 1 109.500 292.880
1402 1403 1412 1 124.986 669.440
1403 1412 1413 1 115.117 334.720
1404 1403 1412 1 118.823 669.440
1416 2828 2827 1 109.500 418.400
1416 2828 2829 1 109.500 292.880
1416 2828 2830 1 109.500 292.880
1421 1422 1429 1 125.237 669.440
1421 1439 1438 1 125.010 669.440
1421 1439 1440 1 116.164 669.440
1422 1421 1439 1 114.807 334.720
1422 1429 1430 1 114.843 334.720
1423 1422 1429 1 118.788 669.440
1424 871 870 1 109.500 502.080
1429 1430 1438 1 124.986 669.440
1430 1438 1439 1 115.117 334.720
1431 1430 1438 1 118.823 669.440
1433 8354 8353 1 109.500 418.400
1433 8354 8355 1 109.500 292.880
1433 8354 8356 1 109.500 292.880
1442 4168 4167 1 109.500 418.400
1442 4168 4169 1 109.500 292.880
1442 4168 4170 1 109.500 292.880
1447 1448 1456 1 125.237 669.440
1447 1466 1465 1 125.010 669.440
1447 1466 1467 1 116.164 669.440
1448 1447 1466 1 114.807 334.720
1448 1456 1457 1 114.843 334.720
1449 1448 1456 1 118.788 669.440
1451 8050 8049 1 109.500 418.400
1451 8050 8051 1 109.500 292.880
1451 8050 8052 1 109.500 292.880
1456 1457 1465 1 124.986 669.440
1457 1465 1466 1 115.117 334.720
1458 1457 1465 1 118.823 669.440
1460 5407 5406 1 109.500 418.400
1460 5407 5408 1 109.500 292.880
1460 5407 5409 1 109.500 292.880
1469 3832 3831 1 109.500 418.400
1469 3832 3833 1 109.500 292.880
1469 3832 3834 1 109.500 292.880
1474 1475 1483 1 125.237 669.440
1474 1493 1492 1 125.010 669.440
1474 1493 1494 1 116.164 669.440
1475 1474 1493 1 114.807 334.720
1475 1483 1484 1 114.843 334.720
1476 1475 1483 1 118.788 669.440
1478 10927 10926 1 109.500 418.400
1478 10927 10928 1 109.500 292.880
1478 10927 10929 1 109.500 292.880
1483 1484 1492 1 124.986 669.440
1484 1492 1493 1 115.117 334.720
1485 1484 1492 1 118.823 669.440
1487 8296 8295 1 109.500 418.400
1487 8296 8297 1 109.500 292.880
1487 8296 8298 1 109.500 292.880
1496 3604 3603 1 109.500 418.400
1496 3604 3605 1 109.500 292.880
1496 3604 3606 1 109.500 292.880
1501 1502 1510 1 125.237 669.440
1501 1520 1519 1 125.010 669.440
1501 1520 1521 1 116.164 669.440
1502 1501 1520 1 114.807 334.720
1502 1510 1511 1 114.843 334.720
1503 1502 1510 1 118.788 669.440
1505 10167 10166 1 109.500 418.400
1505 10167 10168 1 109.500 292.880
1505 10167 10169 1 109.500 292.880
1510 1511 1519 1 124.986 669.440
1511 1519 1520 1 115.117 334.720
1512 1511 1519 1 118.823 669.440
1514 11759 11758 1 109.500 418.400
1514 11759 11760 1 109.500 292.880
1514 11759 11761 1 109.500 292.880
1523 3913 3912 1 109.500 418.400
1523 3913 3914 1 109.500 292.880
1523 3913 3915 1 109.500 292.880
1528 1529 1537 1 125.237 669.440
1528 1547 1546 1 125.010 669.440
1528 1547 1548 1 116.164 669.440
1529 1528 1547 1 114.807 334.720
1529 1537 1538 1 114.843 334.720
1530 1529 1537 1 118.788 669.440
1532 3596 3595 1 109.500 418.400
1532 3596 3597 1 109.500 292.880
1532 3596 3598 1 109.500 292.880
1537 1538 1546 1 124.986 669.440
1538 1546 1547 1 115.117 334.720
1539 1538 1546 1 118.823 669.440
1541 9266 9265 1 109.500 418.400
1541 9266 9267 1 109.500 292.880
1541 9266 9268 1 109.500 292.880
1550 8169 8168 1 109.500 418.400
1550 8169 8170 1 109.500 292.880
1550 8169 8171 1 109.500 292.880
1555 1556 1563 1 125.237 669.440
1555 1573 1572 1 125.010 669.440
1555 1573 1574 1 116.164 669.440
1556 1555 1573 1 114.807 334.720
1556 1563 1564 1 114.843 334.720
1557 1556 1563 1 118.788 669.440
1558 1297 1296 1 109.500 502.080
1563 1564 1572 1 124.986 669.440
1564 1572 1573 1 115.117 334.720
1565 1564 1572 1 118.823 669.440
1567 1907 1906 1 109.500 418.400
1567 1907 1908 1 109.500 292.880
1567 1907 1909 1 109.500 292.880
1576 10292 10291 1 109.500 418.400
1576 10292 10293 1 109.500 292.880
1576 10292 10294 1 109.500 292.880
1581 1582 1590 1 125.237 669.440
1581 1600 1599 1 125.010 669.440
1581 1600 1601 1 116.164 669.440
1582 1581 1600 1 114.807 334.720
1582 1590 1591 1 114.843 334.720
1583 1582 1590 1 118.788 669.440
1585 3753 3752 1 109.500 418.400
1585 3753 3754 1 109.500 292.880
1585 3753 3755 1 109.500 292.880
1590 1591 1599 1 124.986 669.440
1591 1599 1600 1 115.117 334.720
1592 1591 1599 1 118.823 669.440
1594 10020 10019 1 109.500 418.400
1594 10020 10021 1 109.500 292.880
1594 10020 10022 1 109.500 292.880
1603 1675 1674 1 109.500 418.400
1603 1675 1676 1 109.500 292.880
1603 1675 1677 1 109.500 292.880
1608 1609 1617 1 125.237 669.440
1608 1627 1626 1 125.010 669.440
1608 1627 1628 1 116.164 669.440
1609 1608 1627 1 114.807 334.720
1609 1617 1618 1 114.843 334.720
1610 1609 1617 1 118.788 669.440
1612 7203 7202 1 109.500 418.400
1612 7203 7204 1 109.500 292.880
1612 7203 7205 1 109.500 292.880
1617 1618 1626 1 124.986 669.440
1618 1626 1627 1 115.117 334.720
1619 1618 1626 1 118.823 669.440
1621 12890 12889 1 109.500 418.400
1621 12890 12891 1 109.500 292.880
1621 12890 12892 1 109.500 292.880
1630 10366 10365 1 109.500 418.400
1630 10366 10367 1 109.500 292.880
1630 10366 10368 1 109.500 292.880
1635 1636 1644 1 125.237 669.440
1635 1655 1654 1 125.010 669.440
1635 1655 1656 1 116.164 669.440
1636 1635 1655 1 114.807 334.720
1636 1644 1645 1 114.843 334.720
1637 1636 1644 1 118.788 669.440
1639 12820 12819 1 109.500 418.400
1639 12820 12821 1 109.500 292.880
1639 12820 12822 1 109.500 292.880
1644 1645 1654 1 124.986 669.440
1645 1654 1655 1 115.117 334.720
1646 1645 1654 1 118.823 669.440
1658 7073 7072 1 109.500 418.400
1658 7073 7074 1 109.500 292.880
1658 7073 7075 1 109.500 292.880
1663 1664 1672 1 125.237 669.440
1663 1681 1680 1 125.010 669.440
1663 1681 1682 1 116.164 669.440
1664 1663 1681 1 114.807 334.720
1664 1672 1673 1 114.843 334.720
1665 1664 1672 1 118.788 669.440
1667 10643 10642 1 109.500 418.400
1667 10643 10644 1 109.500 292.880
1667 10643 10645 1 109.500 292.880
1672 1673 1680 1 124.986 669.440
1673 1680 1681 1 115.117 334.720
1674 1673 1680 1 118.823 669.440
1675 1603 1602 1 109.500 502.080
1684 9622 9621 1 109.500 418.400
1684 9622 9623 1 109.500 292.880
1684 9622 9624 1 109.500 292.880
1689 1690 1698 1 125.237 669.440
1689 1707 1706 1 125.010 669.440
1689 1707 1708 1 116.164 669.440
1690 1689 1707 1 114.807 334.720
1690 1698 1699 1 114.843 334.720
1691 1690 1698 1 118.788 669.440
1693 2704 2703 1 109.500 418.400
1693 2704 2705 1 109.500 292.880
1693 2704 2706 1 109.500 292.880
1698 1699 1706 1 124.986 669.440
1699 1706 1707 1 115.117 334.720
1700 1699 1706 1 118.823 669.440
1701 126 125 1 109.500 502.080
1709 33 32 1 109.500 502.080
1714 1715 1723 1 125.237 669.440
1714 1733 1732 1 125.010 669.440
1714 1733 1734 1 116.164 669.440
1715 1714 1733 1 114.807 334.720
1715 1723 1724 1 114.843 334.720
1716 1715 1723 1 118.788 669.440
1718 2085 2084 1 109.500 418.400
1718 2085 2086 1 109.500 292.880
1718 2085 2087 1 109.500 292.880
1723 1724 1732 1 124.986 669.440
1724 1732 1733 1 115.117 334.720
1725 1724 1732 1 118.823 669.440
1727 9081 9080 1 109.500 418.400
1727 9081 9082 1 109.500 292.880
1727 9081 9083 1 109.500 292.880
1736 9696 9695 1 109.500 418.400
1736 9696 9697 1 109.500 292.880
1736 9696 9698 1 109.500 292.880
1741 1742 1750 1 125.237 669.440
1741 1760 1759 1 125.010 669.440
1741 1760 1761 1 116.164 669.440
1742 1741 1760 1 114.807 334.720
1742 1750 1751 1 114.843 334.720
1743 1742 1750 1 118.788 669.440
1745 11642 11641 1 109.500 418.400
1745 11642 11643 1 109.500 292.880
1745 11642 11644 1 109.500 292.880
1750 1751 1759 1 124.986 669.440
1751 1759 1760 1 115.117 334.720
1752 1751 1759 1 118.823 669.440
1754 6587 6586 1 109.500 418.400
1754 6587 6588 1 109.500 292.880
1754 6587 6589 1 109.500 292.880
1769 1770 1778 1 125.237 669.440
1769 1788 1787 1 125.010 669.440
1769 1788 1789 1 116.164 669.440
1770 1769 1788 1 114.807 334.720
1770 1778 1779 1 114.843 334.720
1771 1770 1778 1 118.788 669.440
1773 4576 4575 1 109.500 418.400
1773 4576 4577 1 109.500 292.880
1773 4576 4578 1 109.500 292.880
1778 1779 1787 1 124.986 669.440
1779 1787 1788 1 115.117 334.720
1780 1779 1787 1 118.823 669.440
1782 11052 11051 1 109.500 418.400
1782 11052 11053 1 109.500 292.880
1782 11052 11054 1 109.500 292.880
1791 5153 5152 1 109.500 418.400
1791 5153 5154 1 109.500 292.880
1791 5153 5155 1 109.500 292.880
1796 1797 1805 1 125.237 669.440
1796 1815 1814 1 125.010 669.440
1796 1815 1816 1 116.164 669.440
1797 1796 1815 1 114.807 334.720
1797 1805 1806 1 114.843 334.720
1798 1797 1805 1 118.788 669.440
1800 11783 11782 1 109.500 418.400
1800 11783 11784 1 109.500 292.880
1800 11783 11785 1 109.500 292.880
1805 1806 1814 1 124.986 669.440
1806 1814 1815 1 115.117 334.720
1807 1806 1814 1 118.823 669.440
1809 12171 12170 1 109.500 418.400
1809 12171 12172 1 109.500 292.880
1809 12171 12173 1 109.500 292.880
1818 1854 1853 1 109.500 418.400
1818 1854 1855 1 109.500 292.880
1818 1854 1856 1 109.500 292.880
1823 1824 1832 1 125.237 669.440
1823 1843 1842 1 125.010 669.440
1823 1843 1844 1 116.164 669.440
1824 1823 1843 1 114.807 334.720
1824 1832 1833 1 114.843 334.720
1825 1824 1832 1 118.788 669.440
1827 9688 9687 1 109.500 418.400
1827 9688 9689 1 109.500 292.880
1827 9688 9690 1 109.500 292.880
1832 1833 1842 1 124.986 669.440
1833 1842 1843 1 115.117 334.720
1834 1833 1842 1 118.823 669.440
1846 12386 12385 1 109.500 418.400
1846 12386 12387 1 109.500 292.880
1846 12386 12388 1 109.500 292.880
1851 1852 1859 1 125.237 669.440
1851 1869 1868 1 125.010 669.440
1851 1869 1870 1 116.164 669.440
1852 1851 1869 1 114.807 334.720
1852 1859 1860 1 114.843 334.720
1853 1852 1859 1 118.788 669.440
1854 1818 1817 1 109.500 502.080
1859 1860 1868 1 124.986 669.440
1860 1868 1869 1 115.117 334.720
1861 1860 1868 1 118.823 669.440
1863 5799 5798 1 109.500 418.400
1863 5799 5800 1 109.500 292.880
1863 5799 5801 1 109.500 292.880
1872 12306 12305 1 109.500 418.400
1872 12306 12307 1 109.500 292.880
1872 12306 12308 1 109.500 292.880
1877 1878 1886 1 125.237 669.440
1877 1896 1895 1 125.010 669.440
1877 1896 1897 1 116.164 669.440
1878 1877 1896 1 114.807 334.720
1878 1886 1887 1 114.843 334.720
1879 1878 1886 1 118.788 669.440
1881 2110 2109 1 109.500 418.400
1881 2110 2111 1 109.500 292.880
1881 2110 2112 1 109.500 292.880
1886 1887 1895 1 124.986 669.440
1887 1895 1896 1 115.117 334.720
1888 1887 1895 1 118.823 669.440
1890 12274 12273 1 109.500 418.400
1890 12274 12275 1 109.500 292.880
1890 12274 12276 1 109.500 292.880
1899 12139 12138 1 109.500 418.400
1899 12139 12140 1 109.500 292.880
1899 12139 12141 1 109.500 292.880
1904 1905 1912 1 125.237 669.440
1904 1922 1921 1 125.010 669.440
1904 1922 1923 1 116.164 669.440
1905 1904 1922 1 114.807 334.720
1905 1912 1913 1 114.843 334.720
1906 1905 1912 1 118.788 669.440
1907 1567 1566 1 109.500 502.080
1912 1913 1921 1 124.986 669.440
1913 1921 1922 1 115.117 334.720
1914 1913 1921 1 118.823 669.440
1916 4358 4357 1 109.500 418.400
1916 4358 4359 1 109.500 292.880
1916 4358 4360 1 109.500 292.880
1924 1181 1180 1 109.500 502.080
1929 1930 1938 1 125.237 669.440
1929 1948 1947 1 125.010 669.440
1929 1948 1949 1 116.164 669.440
1930 1929 1948 1 114.807 334.720
1930 1938 1939 1 114.843 334.720
1931 1930 1938 1 118.788 669.440
1933 8523 8522 1 109.500 418.400
1933 8523 8524 1 109.500 292.880
1933 8523 8525 1 109.500 292.880
1938 1939 1947 1 124.986 669.440
1939 1947 1948 1 115.117 334.720
1940 1939 1947 1 118.823 669.440
1942 4834 4833 1 109.500 418.400
1942 4834 4835 1 109.500 292.880
1942 4834 4836 1 109.500 292.880
1951 2854 2853 1 109.500 418.400
1951 2854 2855 1 109.500 292.880
1951 2854 2856 1 109.500 292.880
1956 1957 1965 1 125.237 669.440
1956 1975 1974 1 125.010 669.440
1956 1975 1976 1 116.164 669.440
1957 1956 1975 1 114.807 334.720
1957 1965 1966 1 114.843 334.720
1958 1957 1965 1 118.788 669.440
1960 5423 5422 1 109.500 418.400
1960 5423 5424 1 109.500 292.880
1960 5423 5425 1 109.500 292.880
1965 1966 1974 1 124.986 669.440
1966 1974 1975 1 115.117 334.720
1967 1966 1974 1 118.823 669.440
1969 9024 9023 1 109.500 418.400
1969 9024 9025 1 109.500 292.880
1969 9024 9026 1 109.500 292.880
1978 9418 9417 1 109.500 418.400
1978 9418 9419 1 109.500 292.880
1978 9418 9420 1 109.500 292.880
1983 1984 1992 1 125.237 669.440
1983 2002 2001 1 125.010 669.440
1983 2002 2003 1 116.164 669.440
1984 1983 2002 1 114.807 334.720
1984 1992 1993 1 114.843 334.720
1985 1984 1992 1 118.788 669.440
1987 3984 3983 1 109.500 418.400
1987 3984 3985 1 109.500 292.880
1987 3984 3986 1 109.500 292.880
1992 1993 2001 1 124.986 669.440
1993 2001 2002 1 115.117 334.720
1994 1993 2001 1 118.823 669.440
1996 7263 7262 1 109.500 418.400
1996 7263 7264 1 109.500 292.880
1996 7263 7265 1 109.500 292.880
2005 2904 2903 1 109.500 418.400
2005 2904 2905 1 109.500 292.880
2005 2904 2906 1 109.500 292.880
2010 2011 2019 1 125.237 669.440
2010 2029 2028 1 125.010 669.440
2010 2029 2030 1 116.164 669.440
2011 2010 2029 1 114.807 334.720
2011 2019 2020 1 114.843 334.720
2012 2011 2019 1 118.788 669.440
2014 10417 10416 1 109.500 418.400
2014 10417 10418 1 109.500 292.880
2014 10417 10419 1 109.500 292.880
2019 2020 2028 1 124.986 669.440
2020 2028 2029 1 115.117 334.720
2021 2020 2028 1 118.823 669.440
2023 7661 7660 1 109.500 418.400
2023 7661 7662 1 109.500 292.880
2023 7661 7663 1 109.500 292.880
2032 6030 6029 1 109.500 418.400
2032 6030 6031 1 109.500 292.880
2032 6030 6032 1 109.500 292.880
2037 2038 2046 1 125.237 669.440
2037 2056 2055 1 125.010 669.440
2037 2056 2057 1 116.164 669.440
2038 2037 2056 1 114.807 334.720
2038 2046 2047 1 114.843 334.720
2039 2038 2046 1 118.788 669.440
2041 7678 7677 1 109.500 418.400
2041 7678 7679 1 109.500 292.880
2041 7678 7680 1 109.500 292.880
2046 2047 2055 1 124.986 669.440
2047 2055 2056 1 115.117 334.720
2048 2047 2055 1 118.823 669.440
2050 3867 3866 1 109.500 418.400
2050 3867 3868 1 109.500 292.880
2050 3867 3869 1 109.500 292.880
2059 12099 12098 1 109.500 418.400
2059 12099 12100 1 109.500 292.880
2059 12099 12101 1 109.500 292.880
2064 2065 2073 1 125.237 669.440
2064 2083 2082 1 125.010 669.440
2064 2083 2084 1 116.164 669.440
2065 2064 2083 1 114.807 334.720
2065 2073 2074 1 114.843 334.720
2066 2065 2073 1 118.788 669.440
2068 10143 10142 1 109.500 418.400
2068 10143 10144 1 109.500 292.880
2068 10143 10145 1 109.500 292.880
2073 2074 2082 1 124.986 669.440
2074 2082 2083 1 115.117 334.720
2075 2074 2082 1 118.823 669.440
2077 6781 6780 1 109.500 418.400
2077 6781 6782 1 109.500 292.880
2077 6781 6783 1 109.500 292.880
2085 1718 1717 1 109.500 502.080
2090 2091 2099 1 125.237 669.440
2090 2108 2107 1 125.010 669.440
2090 2108 2109 1 116.164 669.440
2091 2090 2108 1 114.807 334.720
2091 2099 2100 1 114.843 334.720
2092 2091 2099 1 118.788 669.440
2094 5346 5345 1 109.500 418.400
2094 5346 5347 1 109.500 292.880
2094 5346 5348 1 109.500 292.880
2099 2100 2107 1 124.986 669.440
2100 2107 2108 1 115.117 334.720
2101 2100 2107 1 118.823 669.440
2102 290 289 1 109.500 502.080
2110 1881 1880 1 109.500 502.080
2115 2116 2124 1 125.237 669.440
2115 2134 2133 1 125.010 669.440
2115 2134 2135 1 116.164 669.440
2116 2115 2134 1 114.807 334.720
2116 2124 2125 1 114.843 334.720
2117 2116 2124 1 118.788 669.440
2119 9475 9474 1 109.500 418.400
2119 9475 9476 1 109.500 292.880
2119 9475 9477 1 109.500 292.880
2124 2125 2133 1 124.986 669.440
2125 2133 2134 1 115.117 334.720
2126 2125 2133 1 118.823 669.440
2128 10325 10324 1 109.500 418.400
2128 10325 10326 1 109.500 292.880
2128 10325 10327 1 109.500 292.880
2137 8210 8209 1 109.500 418.400
2137 8210 8211 1 109.500 292.880
2137 8210 8212 1 109.500 292.880
2142 2143 2151 1 125.237 669.440
2142 2161 2160 1 125.010 669.440
2142 2161 2162 1 116.164 669.440
2143 2142 2161 1 114.807 334.720
2143 2151 2152 1 114.843 334.720
2144 2143 2151 1 118.788 669.440
2146 6677 6676 1 109.500 418.400
2146 6677 6678 1 109.500 292.880
2146 6677 6679 1 109.500 292.880
2151 2152 2160 1 124.986 669.440
2152 2160 2161 1 115.117 334.720
2153 2152 2160 1 118.823 669.440
2155 10028 10027 1 109.500 418.400
2155 10028 10029 1 109.500 292.880
2155 10028 10030 1 109.500 292.880
2164 4920 4919 1 109.500 418.400
2164 4920 4921 1 109.500 292.880
2164 4920 4922 1 109.500 292.880
2169 2170 2178 1 125.237 669.440
2169 2189 2188 1 125.010 669.440
2169 2189 2190 1 116.164 669.440
2170 2169 2189 1 114.807 334.720
2170 2178 2179 1 114.843 334.720
2171 2170 2178 1 118.788 669.440
2173 11002 11001 1 109.500 418.400
2173 11002 11003 1 109.500 292.880
2173 11002 11004 1 109.500 292.880
2178 2179 2188 1 124.986 669.440
2179 2188 2189 1 115.117 334.720
2180 2179 2188 1 118.823 669.440
2192 3655 3654 1 109.500 418.400
2192 3655 3656 1 109.500 292.880
2192 3655 3657 1 109.500 292.880
2197 2198 2206 1 125.237 669.440
2197 2216 2215 1 125.010 669.440
2197 2216 2217 1 116.164 669.440
2198 2197 2216 1 114.807 334.720
2198 2206 2207 1 114.843 334.720
2199 2198 2206 1 118.788 669.440
2201 12115 12114 1 109.500 418.400
2201 12115 12116 1 109.500 292.880
2201 12115 12117 1 109.500 292.880
2206 2207 2215 1 124.986 669.440
2207 2215 2216 1 115.117 334.720
2208 2207 2215 1 118.823 669.440
2210 12956 12955 1 109.500 418.400
2210 12956 12957 1 109.500 292.880
2210 12956 12958 1 109.500 292.880
2225 2226 2234 1 125.237 669.440
2225 2244 2243 1 125.010 669.440
2225 2244 2245 1 116.164 669.440
2226 2225 2244 1 114.807 334.720
2226 2234 2235 1 114.843 334.720
2227 2226 2234 1 118.788 669.440
2229 9896 9895 1 109.500 418.400
2229 9896 9897 1 109.500 292.880
2229 9896 9898 1 109.500 292.880
2234 2235 2243 1 124.986 669.440
2235 2243 2244 1 115.117 334.720
2236 2235 2243 1 118.823 669.440
2238 5493 5492 1 109.500 418.400
2238 5493 5494 1 109.500 292.880
2238 5493 5495 1 109.500 292.880
2247 12216 12215 1 109.500 418.400
2247 12216 12217 1 109.500 292.880
2247 12216 12218 1 109.500 292.880
2252 2253 2261 1 125.237 669.440
2252 2271 2270 1 125.010 669.440
2252 2271 2272 1 116.164 669.440
2253 2252 2271 1 114.807 334.720
2253 2261 2262 1 114.843 334.720
2254 2253 2261 1 118.788 669.440
2256 10159 10158 1 109.500 418.400
2256 10159 10160 1 109.500 292.880
2256 10159 10161 1 109.500 292.880
2261 2262 2270 1 124.986 669.440
2262 2270 2271 1 115.117 334.720
2263 2262 2270 1 118.823 669.440
2265 8091 8090 1 109.500 418.400
2265 8091 8092 1 109.500 292.880
2265 8091 8093 1 109.500 292.880
2274 10903 10902 1 109.500 418.400
2274 10903 10904 1 109.500 292.880
2274 10903 10905 1 109.500 292.880
2279 2280 2288 1 125.237 669.440
2279 2298 2297 1 125.010 669.440
2279 2298 2299 1 116.164 669.440
2280 2279 2298 1 114.807 334.720
2280 2288 2289 1 114.843 334.720
2281 2280 2288 1 118.788 669.440
2283 7150 7149 1 109.500 418.400
2283 7150 7151 1 109.500 292.880
2283 7150 7152 1 109.500 292.880
2288 2289 2297 1 124.986 669.440
2289 2297 2298 1 115.117 334.720
2290 2289 2297 1 118.823 669.440
2292 12570 12569 1 109.500 418.400
2292 12570 12571 1 109.500 292.880
2292 12570 12572 1 109.500 292.880
2301 10268 10267 1 109.500 418.400
2301 10268 10269 1 109.500 292.880
2301 10268 10270 1 109.500 292.880
2306 2307 2315 1 125.237 669.440
2306 2325 2324 1 125.010 669.440
2306 2325 2326 1 116.164 669.440
2307 2306 2325 1 114.807 334.720
2307 2315 2316 1 114.843 334.720
2308 2307 2315 1 118.788 669.440
2310 10284 10283 1 109.500 418.400
2310 10284 10285 1 109.500 292.880
2310 10284 10286 1 109.500 292.880
2315 2316 2324 1 124.986 669.440
2316 2324 2325 1 115.117 334.720
2317 2316 2324 1 118.823 669.440
2319 8457 8456 1 109.500 418.400
2319 8457 8458 1 109.500 292.880
2319 8457 8459 1 109.500 292.880
2328 9114 9113 1 109.500 418.400
2328 9114 9115 1 109.500 292.880
2328 9114 9116 1 109.500 292.880
2333 2334 2342 1 125.237 669.440
2333 2352 2351 1 125.010 669.440
2333 2352 2353 1 116.164 669.440
2334 2333 2352 1 114.807 334.720
2334 2342 2343 1 114.843 334.720
2335 2334 2342 1 118.788 669.440
2337 9073 9072 1 109.500 418.400
2337 9073 9074 1 109.500 292.880
2337 9073 9075 1 109.500 292.880
2342 2343 2351 1 124.986 669.440
2343 2351 2352 1 115.117 334.720
2344 2343 2351 1 118.823 669.440
2346 11220 11219 1 109.500 418.400
2346 11220 11221 1 109.500 292.880
2346 11220 11222 1 109.500 292.880
2361 2362 2369 1 125.237 669.440
2361 2379 2378 1 125.010 669.440
2361 2379 2380 1 116.164 669.440
2362 2361 2379 1 114.807 334.720
2362 2369 2370 1 114.843 334.720
2363 2362 2369 1 118.788 669.440
2364 952 951 1 109.500 502.080
2369 2370 2378 1 124.986 669.440
2370 2378 2379 1 115.117 334.720
2371 2370 2378 1 118.823 669.440
2373 10468 10467 1 109.500 418.400
2373 10468 10469 1 109.500 292.880
2373 10468 10470 1 109.500 292.880
2382 12370 12369 1 109.500 418.400
2382 12370 12371 1 109.500 292.880
2382 12370 12372 1 109.500 292.880
2387 2388 2396 1 125.237 669.440
2387 2406 2405 1 125.010 669.440
2387 2406 2407 1 116.164 669.440
2388 2387 2406 1 114.807 334.720
2388 2396 2397 1 114.843 334.720
2389 2388 2396 1 118.788 669.440
2391 3027 3026 1 109.500 418.400
2391 3027 3028 1 109.500 292.880
2391 3027 3029 1 109.500 292.880
2396 2397 2405 1 124.986 669.440
2397 2405 2406 1 115.117 334.720
2398 2397 2405 1 118.823 669.440
2400 6620 6619 1 109.500 418.400
2400 6620 6621 1 109.500 292.880
2400 6620 6622 1 109.500 292.880
2409 10792 10791 1 109.500 418.400
2409 10792 10793 1 109.500 292.880
2409 10792 10794 1 109.500 292.880
2414 2415 2423 1 125.237 669.440
2414 2432 2431 1 125.010 669.440
2414 2432 2433 1 116.164 669.440
2415 2414 2432 1 114.807 334.720
2415 2423 2424 1 114.843 334.720
2416 2415 2423 1 118.788 669.440
2418 3011 3010 1 109.500 418.400
2418 3011 3012 1 109.500 292.880
2418 3011 3013 1 109.500 292.880
2423 2424 2431 1 124.986 669.440
2424 2431 2432 1 115.117 334.720
2425 2424 2431 1 118.823 669.440
2426 135 134 1 109.500 502.080
2435 8254 8253 1 109.500 418.400
2435 8254 8255 1 109.500 292.880
2435 8254 8256 1 109.500 292.880
2440 2441 2450 1 125.237 669.440
2440 2460 2459 1 125.010 669.440
2440 2460 2461 1 116.164 669.440
2441 2440 2460 1 114.807 334.720
2441 2450 2451 1 114.843 334.720
2442 2441 2450 1 118.788 669.440
2450 2451 2459 1 124.986 669.440
2451 2459 2460 1 115.117 334.720
2452 2451 2459 1 118.823 669.440
2454 12282 12281 1 109.500 418.400
2454 12282 12283 1 109.500 292.880
2454 12282 12284 1 109.500 292.880
2463 3709 3708 1 109.500 418.400
2463 3709 3710 1 109.500 292.880
2463 3709 3711 1 109.500 292.880
2468 2469 2476 1 125.237 669.440
2468 2486 2485 1 125.010 669.440
2468 2486 2487 1 116.164 669.440
2469 2468 2486 1 114.807 334.720
2469 2476 2477 1 114.843 334.720
2470 2469 2476 1 118.788 669.440
2471 1370 1369 1 109.500 502.080
2476 2477 2485 1 124.986 669.440
2477 2485 2486 1 115.117 334.720
2478 2477 2485 1 118.823 669.440
2480 2887 2886 1 109.500 418.400
2480 2887 2888 1 109.500 292.880
2480 2887 2889 1 109.500 292.880
2489 5511 5510 1 109.500 418.400
2489 5511 5512 1 109.500 292.880
2489 5511 5513 1 109.500 292.880
2494 2495 2503 1 125.237 669.440
2494 2513 2512 1 125.010 669.440
2494 2513 2514 1 116.164 669.440
2495 2494 2513 1 114.807 334.720
2495 2503 2504 1 114.843 334.720
2496 2495 2503 1 118.788 669.440
2498 4374 4373 1 109.500 418.400
2498 4374 4375 1 109.500 292.880
2498 4374 4376 1 109.500 292.880
2503 2504 2512 1 124.986 669.440
2504 2512 2513 1 115.117 334.720
2505 2504 2512 1 118.823 669.440
2507 2871 2870 1 109.500 418.400
2507 2871 2872 1 109.500 292.880
2507 2871 2873 1 109.500 292.880
2516 10300 10299 1 109.500 418.400
2516 10300 10301 1 109.500 292.880
2516 10300 10302 1 109.500 292.880
2521 2522 2530 1 125.237 669.440
2521 2539 2538 1 125.010 669.440
2521 2539 2540 1 116.164 669.440
2522 2521 2539 1 114.807 334.720
2522 2530 2531 1 114.843 334.720
2523 2522 2530 1 118.788 669.440
2525 6909 6908 1 109.500 418.400
2525 6909 6910 1 109.500 292.880
2525 6909 6911 1 109.500 292.880
2530 2531 2538 1 124.986 669.440
2531 2538 2539 1 115.117 334.720
2532 2531 2538 1 118.823 669.440
2533 1252 1251 1 109.500 502.080
2542 9192 9191 1 109.500 418.400
2542 9192 9193 1 109.500 292.880
2542 9192 9194 1 109.500 292.880
2547 2548 2556 1 125.237 669.440
2547 2566 2565 1 125.010 669.440
2547 2566 2567 1 116.164 669.440
2548 2547 2566 1 114.807 334.720
2548 2556 2557 1 114.843 334.720
2549 2548 2556 1 118.788 669.440
2551 2730 2729 1 109.500 418.400
2551 2730 2731 1 109.500 292.880
2551 2730 2732 1 109.500 292.880
2556 2557 2565 1 124.986 669.440
2557 2565 2566 1 115.117 334.720
2558 2557 2565 1 118.823 669.440
2560 11948 11947 1 109.500 418.400
2560 11948 11949 1 109.500 292.880
2560 11948 11950 1 109.500 292.880
2569 11767 11766 1 109.500 418.400
2569 11767 11768 1 109.500 292.880
2569 11767 11769 1 109.500 292.880
2574 2575 2584 1 125.237 669.440
2574 2595 2594 1 125.010 669.440
2574 2595 2596 1 116.164 669.440
2575 2574 2595 1 114.807 334.720
2575 2584 2585 1 114.843 334.720
2576 2575 2584 1 118.788 669.440
2584 2585 2594 1 124.986 669.440
2585 2594 2595 1 115.117 334.720
2586 2585 2594 1 118.823 669.440
2598 6038 6037 1 109.500 418.400
2598 6038 6039 1 109.500 292.880
2598 6038 6040 1 109.500 292.880
2603 2604 2612 1 125.237 669.440
2603 2622 2621 1 125.010 669.440
2603 2622 2623 1 116.164 669.440
2604 2603 2622 1 114.807 334.720
2604 2612 2613 1 114.843 334.720
2605 2604 2612 1 118.788 669.440
2607 2633 2632 1 109.500 418.400
2607 2633 2634 1 109.500 292.880
2607 2633 2635 1 109.500 292.880
2612 2613 2621 1 124.986 669.440
2613 2621 2622 1 115.117 334.720
2614 2613 2621 1 118.823 669.440
2616 4046 4045 1 109.500 418.400
2616 4046 4047 1 109.500 292.880
2616 4046 4048 1 109.500 292.880
2625 9274 9273 1 109.500 418.400
2625 9274 9275 1 109.500 292.880
2625 9274 9276 1 109.500 292.880
2630 2631 2638 1 125.237 669.440
2630 2648 2647 1 125.010 669.440
2630 2648 2649 1 116.164 669.440
2631 2630 2648 1 114.807 334.720
2631 2638 2639 1 114.843 334.720
2632 2631 2638 1 118.788 669.440
2633 2607 2606 1 109.500 502.080
2638 2639 2647 1 124.986 669.440
2639 2647 2648 1 115.117 334.720
2640 2639 2647 1 118.823 669.440
2642 12402 12401 1 109.500 418.400
2642 12402 12403 1 109.500 292.880
2642 12402 12404 1 109.500 292.880
2651 11940 11939 1 109.500 418.400
2651 11940 11941 1 109.500 292.880
2651 11940 11942 1 109.500 292.880
2656 2657 2665 1 125.237 669.440
2656 2675 2674 1 125.010 669.440
2656 2675 2676 1 116.164 669.440
2657 2656 2675 1 114.807 334.720
2657 2665 2666 1 114.843 334.720
2658 2657 2665 1 118.788 669.440
2660 6022 6021 1 109.500 418.400
2660 6022 6023 1 109.500 292.880
2660 6022 6024 1 109.500 292.880
2665 2666 2674 1 124.986 669.440
2666 2674 2675 1 115.117 334.720
2667 2666 2674 1 118.823 669.440
2669 8431 8430 1 109.500 418.400
2669 8431 8432 1 109.500 292.880
2669 8431 8433 1 109.500 292.880
2684 2685 2693 1 125.237 669.440
2684 2702 2701 1 125.010 669.440
2684 2702 2703 1 116.164 669.440
2685 2684 2702 1 114.807 334.720
2685 2693 2694 1 114.843 334.720
2686 2685 2693 1 118.788 669.440
2688 12476 12475 1 109.500 418.400
2688 12476 12477 1 109.500 292.880
2688 12476 12478 1 109.500 292.880
2693 2694 2701 1 124.986 669.440
2694 2701 2702 1 115.117 334.720
2695 2694 2701 1 118.823 669.440
2696 117 116 1 109.500 502.080
2704 1693 1692 1 109.500 502.080
2709 2710 2718 1 125.237 669.440
2709 2728 2727 1 125.010 669.440
2709 2728 2729 1 116.164 669.440
2710 2709 2728 1 114.807 334.720
2710 2718 2719 1 114.843 334.720
2711 2710 2718 1 118.788 669.440
2713 10276 10275 1 109.500 418.400
2713 10276 10277 1 109.500 292.880
2713 10276 10278 1 109.500 292.880
2718 2719 2727 1 124.986 669.440
2719 2727 2728 1 115.117 334.720
2720 2719 2727 1 118.823 669.440
2722 5900 5899 1 109.500 418.400
2722 5900 5901 1 109.500 292.880
2722 5900 5902 1 109.500 292.880
2730 2551 2550 1 109.500 502.080
2735 2736 2744 1 125.237 669.440
2735 2754 2753 1 125.010 669.440
2735 2754 2755 1 116.164 669.440
2736 2735 2754 1 114.807 334.720
2736 2744 2745 1 114.843 334.720
2737 2736 2744 1 118.788 669.440
2739 4542 4541 1 109.500 418.400
2739 4542 4543 1 109.500 292.880
2739 4542 4544 1 109.500 292.880
2744 2745 2753 1 124.986 669.440
2745 2753 2754 1 115.117 334.720
2746 2745 2753 1 118.823 669.440
2748 6612 6611 1 109.500 418.400
2748 6612 6613 1 109.500 292.880
2748 6612 6614 1 109.500 292.880
2763 2764 2772 1 125.237 669.440
2763 2782 2781 1 125.010 669.440
2763 2782 2783 1 116.164 669.440
2764 2763 2782 1 114.807 334.720
2764 2772 2773 1 114.843 334.720
2765 2764 2772 1 118.788 669.440
2767 7874 7873 1 109.500 418.400
2767 7874 7875 1 109.500 292.880
2767 7874 7876 1 109.500 292.880
2772 2773 2781 1 124.986 669.440
2773 2781 2782 1 115.117 334.720
2774 2773 2781 1 118.823 669.440
2776 9870 9869 1 109.500 418.400
2776 9870 9871 1 109.500 292.880
2776 9870 9872 1 109.500 292.880
2784 654 653 1 109.500 502.080
2789 2790 2798 1 125.237 669.440
2789 2808 2807 1 125.010 669.440
2789 2808 2809 1 116.164 669.440
2790 2789 2808 1 114.807 334.720
2790 2798 2799 1 114.843 334.720
2791 2790 2798 1 118.788 669.440
2793 8322 8321 1 109.500 418.400
2793 8322 8323 1 109.500 292.880
2793 8322 8324 1 109.500 292.880
2798 2799 2807 1 124.986 669.440
2799 2807 2808 1 115.117 334.720
2800 2799 2807 1 118.823 669.440
2802 8507 8506 1 109.500 418.400
2802 8507 8508 1 109.500 292.880
2802 8507 8509 1 109.500 292.880
2811 6960 6959 1 109.500 418.400
2811 6960 6961 1 109.500 292.880
2811 6960 6962 1 109.500 292.880
2816 2817 2825 1 125.237 669.440
2816 2834 2833 1 125.010 669.440
2816 2834 2835 1 116.164 669.440
2817 2816 2834 1 114.807 334.720
2817 2825 2826 1 114.843 334.720
2818 2817 2825 1 118.788 669.440
2820 5338 5337 1 109.500 418.400
2820 5338 5339 1 109.500 292.880
2820 5338 5340 1 109.500 292.880
2825 2826 2833 1 124.986 669.440
2826 2833 2834 1 115.117 334.720
2827 2826 2833 1 118.823 669.440
2828 1416 1415 1 109.500 502.080
2837 4550 4549 1 109.500 418.400
2837 4550 4551 1 109.500 292.880
2837 4550 4552 1 109.500 292.880
2842 2843 2851 1 125.237 669.440
2842 2860 2859 1 125.010 669.440
2842 2860 2861 1 116.164 669.440
2843 2842 2860 1 114.807 334.720
2843 2851 2852 1 114.843 334.720
2844 2843 2851 1 118.788 669.440
2846 5043 5042 1 109.500 418.400
2846 5043 5044 1 109.500 292.880
2846 5043 5045 1 109.500 292.880
2851 2852 2859 1 124.986 669.440
2852 2859 2860 1 115.117 334.720
2853 2852 2859 1 118.823 669.440
2854 1951 1950 1 109.500 502.080
2863 7427 7426 1 109.500 418.400
2863 7427 7428 1 109.500 292.880
2863 7427 7429 1 109.500 292.880
2868 2869 2876 1 125.237 669.440
2868 2885 2884 1 125.010 669.440
2868 2885 2886 1 116.164 669.440
2869 2868 2885 1 114.807 334.720
2869 2876 2877 1 114.843 334.720
2870 2869 2876 1 118.788 669.440
2871 2507 2506 1 109.500 502.080
2876 2877 2884 1 124.986 669.440
2877 2884 2885 1 115.117 334.720
2878 2877 2884 1 118.823 669.440
2879 1379 1378 1 109.500 502.080
2887 2480 2479 1 109.500 502.080
2892 2893 2901 1 125.237 669.440
2892 2910 2909 1 125.010 669.440
2892 2910 2911 1 116.164 669.440
2893 2892 2910 1 114.807 334.720
2893 2901 2902 1 114.843 334.720
2894 2893 2901 1 118.788 669.440
2896 6653 6652 1 109.500 418.400
2896 6653 6654 1 109.500 292.880
2896 6653 6655 1 109.500 292.880
2901 2902 2909 1 124.986 669.440
2902 2909 2910 1 115.117 334.720
2903 2902 2909 1 118.823 669.440
2904 2005 2004 1 109.500 502.080
2913 6637 6636 1 109.500 418.400
2913 6637 6638 1 109.500 292.880
2913 6637 6639 1 109.500 292.880
2918 2919 2927 1 125.237 669.440
2918 2937 2936 1 125.010 669.440
2918 2937 2938 1 116.164 669.440
2919 2918 2937 1 114.807 334.720
2919 2927 2928 1 114.843 334.720
2920 2919 2927 1 118.788 669.440
2922 7359 7358 1 109.500 418.400
2922 7359 7360 1 109.500 292.880
2922 7359 7361 1 109.500 292.880
2927 2928 2936 1 124.986 669.440
2928 2936 2937 1 115.117 334.720
2929 2928 2936 1 118.823 669.440
2931 3141 3140 1 109.500 418.400
2931 3141 3142 1 109.500 292.880
2931 3141 3143 1 109.500 292.880
2940 9451 9450 1 109.500 418.400
2940 9451 9452 1 109.500 292.880
2940 9451 9453 1 109.500 292.880
2945 2946 2954 1 125.237 669.440
2945 2964 2963 1 125.010 669.440
2945 2964 2965 1 116.164 669.440
2946 2945 2964 1 114.807 334.720
2946 2954 2955 1 114.843 334.720
2947 2946 2954 1 118.788 669.440
2949 8998 8997 1 109.500 418.400
2949 8998 8999 1 109.500 292.880
2949 8998 9000 1 109.500 292.880
2954 2955 2963 1 124.986 669.440
2955 2963 2964 1 115.117 334.720
2956 2955 2963 1 118.823 669.440
2958 3621 3620 1 109.500 418.400
2958 3621 3622 1 109.500 292.880
2958 3621 3623 1 109.500 292.880
2967 8066 8065 1 109.500 418.400
2967 8066 8067 1 109.500 292.880
2967 8066 8068 1 109.500 292.880
2972 2973 2981 1 125.237 669.440
2972 2991 2990 1 125.010 669.440
2972 2991 2992 1 116.164 669.440
2973 2972 2991 1 114.807 334.720
2973 2981 2982 1 114.843 334.720
2974 2973 2981 1 118.788 669.440
2976 3227 3226 1 109.500 418.400
2976 3227 3228 1 109.500 292.880
2976 3227 3229 1 109.500 292.880
2981 2982 2990 1 124.986 669.440
2982 2990 2991 1 115.117 334.720
2983 2982 2990 1 118.823 669.440
2985 7343 7342 1 109.500 418.400
2985 7343 7344 1 109.500 292.880
2985 7343 7345 1 109.500 292.880
2994 10752 10751 1 109.500 418.400
2994 10752 10753 1 109.500 292.880
2994 10752 10754 1 109.500 292.880
2999 3000 3008 1 125.237 669.440
2999 3017 3016 1 125.010 669.440
2999 3017 3018 1 116.164 669.440
3000 2999 3017 1 114.807 334.720
3000 3008 3009 1 114.843 334.720
3001 3000 3008 1 118.788 669.440
3003 9467 9466 1 109.500 418.400
3003 9467 9468 1 109.500 292.880
3003 9467 9469 1 109.500 292.880
3008 3009 3016 1 124.986 669.440
3009 3016 3017 1 115.117 334.720
3010 3009 3016 1 118.823 669.440
3011 2418 2417 1 109.500 502.080
3019 1154 1153 1 109.500 502.080
3024 3025 3032 1 125.237 669.440
3024 3042 3041 1 125.010 669.440
3024 3042 3043 1 116.164 669.440
3025 3024 3042 1 114.807 334.720
3025 3032 3033 1 114.843 334.720
3026 3025 3032 1 118.788 669.440
3027 2391 2390 1 109.500 502.080
3032 3033 3041 1 124.986 669.440
3033 3041 3042 1 115.117 334.720
3034 3033 3041 1 118.823 669.440
3036 7951 7950 1 109.500 418.400
3036 7951 7952 1 109.500 292.880
3036 7951 7953 1 109.500 292.880
3044 744 743 1 109.500 502.080
3049 3050 3057 1 125.237 669.440
3049 3067 3066 1 125.010 669.440
3049 3067 3068 1 116.164 669.440
3050 3049 3067 1 114.807 334.720
3050 3057 3058 1 114.843 334.720
3051 3050 3057 1 118.788 669.440
3052 916 915 1 109.500 502.080
3057 3058 3066 1 124.986 669.440
3058 3066 3067 1 115.117 334.720
3059 3058 3066 1 118.823 669.440
3061 7288 7287 1 109.500 418.400
3061 7288 7289 1 109.500 292.880
3061 7288 7290 1 109.500 292.880
3070 11923 11922 1 109.500 418.400
3070 11923 11924 1 109.500 292.880
3070 11923 11925 1 109.500 292.880
3075 3076 3084 1 125.237 669.440
3075 3095 3094 1 125.010 669.440
3075 3095 3096 1 116.164 669.440
3076 3075 3095 1 114.807 334.720
3076 3084 3085 1 114.843 334.720
3077 3076 3084 1 118.788 669.440
3079 3210 3209 1 109.500 418.400
3079 3210 3211 1 109.500 292.880
3079 3210 3212 1 109.500 292.880
3084 3085 3094 1 124.986 669.440
3085 3094 3095 1 115.117 334.720
3086 3085 3094 1 118.823 669.440
3098 4956 4955 1 109.500 418.400
3098 4956 4957 1 109.500 292.880
3098 4956 4958 1 109.500 292.880
3103 3104 3111 1 125.237 669.440
3103 3121 3120 1 125.010 669.440
3103 3121 3122 1 116.164 669.440
3104 3103 3121 1 114.807 334.720
3104 3111 3112 1 114.843 334.720
3105 3104 3111 1 118.788 669.440
3106 263 262 1 109.500 502.080
3111 3112 3120 1 124.986 669.440
3112 3120 3121 1 115.117 334.720
3113 3112 3120 1 118.823 669.440
3115 12436 12435 1 109.500 418.400
3115 12436 12437 1 109.500 292.880
3115 12436 12438 1 109.500 292.880
3124 10374 10373 1 109.500 418.400
3124 10374 10375 1 109.500 292.880
3124 10374 10376 1 109.500 292.880
3129 3130 3138 1 125.237 669.440
3129 3147 3146 1 125.010 669.440
3129 3147 3148 1 116.164 669.440
3130 3129 3147 1 114.807 334.720
3130 3138 3139 1 114.843 334.720
3131 3130 3138 1 118.788 669.440
3133 10601 10600 1 109.500 418.400
3133 10601 10602 1 109.500 292.880
3133 10601 10603 1 109.500 292.880
3138 3139 3146 1 124.986 669.440
3139 3146 3147 1 115.117 334.720
3140 3139 3146 1 118.823 669.440
3141 2931 2930 1 109.500 502.080
3149 1082 1081 1 109.500 502.080
3154 3155 3162 1 125.237 669.440
3154 3172 3171 1 125.010 669.440
3154 3172 3173 1 116.164 669.440
3155 3154 3172 1 114.807 334.720
3155 3162 3163 1 114.843 334.720
3156 3155 3162 1 118.788 669.440
3157 419 418 1 109.500 502.080
3162 3163 3171 1 124.986 669.440
3163 3171 3172 1 115.117 334.720
3164 3163 3171 1 118.823 669.440
3166 7832 7831 1 109.500 418.400
3166 7832 7833 1 109.500 292.880
3166 7832 7834 1 109.500 292.880
3174 335 334 1 109.500 502.080
3179 3180 3188 1 125.237 669.440
3179 3199 3198 1 125.010 669.440
3179 3199 3200 1 116.164 669.440
3180 3179 3199 1 114.807 334.720
3180 3188 3189 1 114.843 334.720
3181 3180 3188 1 118.788 669.440
3183 6866 6865 1 109.500 418.400
3183 6866 6867 1 109.500 292.880
3183 6866 6868 1 109.500 292.880
3188 3189 3198 1 124.986 669.440
3189 3198 3199 1 115.117 334.720
3190 3189 3198 1 118.823 669.440
3202 4134 4133 1 109.500 418.400
3202 4134 4135 1 109.500 292.880
3202 4134 4136 1 109.500 292.880
3207 3208 3215 1 125.237 669.440
3207 3225 3224 1 125.010 669.440
3207 3225 3226 1 116.164 669.440
3208 3207 3225 1 114.807 334.720
3208 3215 3216 1 114.843 334.720
3209 3208 3215 1 118.788 669.440
3210 3079 3078 1 109.500 502.080
3215 3216 3224 1 124.986 669.440
3216 3224 3225 1 115.117 334.720
3217 3216 3224 1 118.823 669.440
3219 12916 12915 1 109.500 418.400
3219 12916 12917 1 109.500 292.880
3219 12916 12918 1 109.500 292.880
3227 2976 2975 1 109.500 502.080
3232 3233 3241 1 125.237 669.440
3232 3252 3251 1 125.010 669.440
3232 3252 3253 1 116.164 669.440
3233 3232 3252 1 114.807 334.720
3233 3241 3242 1 114.843 334.720
3234 3233 3241 1 118.788 669.440
3236 10784 10783 1 109.500 418.400
3236 10784 10785 1 109.500 292.880
3236 10784 10786 1 109.500 292.880
3241 3242 3251 1 124.986 669.440
3242 3251 3252 1 115.117 334.720
3243 3242 3251 1 118.823 669.440
3255 11824 11823 1 109.500 418.400
3255 11824 11825 1 109.500 292.880
3255 11824 11826 1 109.500 292.880
3260 3261 3269 1 125.237 669.440
3260 3279 3278 1 125.010 669.440
3260 3279 3280 1 116.164 669.440
3261 3260 3279 1 114.807 334.720
3261 3269 3270 1 114.843 334.720
3262 3261 3269 1 118.788 669.440
3264 5467 5466 1 109.500 418.400
3264 5467 5468 1 109.500 292.880
3264 5467 5469 1 109.500 292.880
3269 3270 3278 1 124.986 669.440
3270 3278 3279 1 115.117 334.720
3271 3270 3278 1 118.823 669.440
3273 4366 4365 1 109.500 418.400
3273 4366 4367 1 109.500 292.880
3273 4366 4368 1 109.500 292.880
3282 12266 12265 1 109.500 418.400
3282 12266 12267 1 109.500 292.880
3282 12266 12268 1 109.500 292.880
3287 3288 3296 1 125.237 669.440
3287 3306 3305 1 125.010 669.440
3287 3306 3307 1 116.164 669.440
3288 3287 3306 1 114.807 334.720
3288 3296 3297 1 114.843 334.720
3289 3288 3296 1 118.788 669.440
3291 9290 9289 1 109.500 418.400
3291 9290 9291 1 109.500 292.880
3291 9290 9292 1 109.500 292.880
3296 3297 3305 1 124.986 669.440
3297 3305 3306 1 115.117 334.720
3298 3297 3305 1 118.823 669.440
3300 6553 6552 1 109.500 418.400
3300 6553 6554 1 109.500 292.880
3300 6553 6555 1 109.500 292.880
3309 12510 12509 1 109.500 418.400
3309 12510 12511 1 109.500 292.880
3309 12510 12512 1 109.500 292.880
3314 3315 3322 1 125.237 669.440
3314 3332 3331 1 125.010 669.440
3314 3332 3333 1 116.164 669.440
3315 3314 3332 1 114.807 334.720
3315 3322 3323 1 114.843 334.720
3316 3315 3322 1 118.788 669.440
3317 1288 1287 1 109.500 502.080
3322 3323 3331 1 124.986 669.440
3323 3331 3332 1 115.117 334.720
3324 3323 3331 1 118.823 669.440
3326 4692 4691 1 109.500 418.400
3326 4692 4693 1 109.500 292.880
3326 4692 4694 1 109.500 292.880
3335 9282 9281 1 109.500 418.400
3335 9282 9283 1 109.500 292.880
3335 9282 9284 1 109.500 292.880
3340 3341 3350 1 125.237 669.440
3340 3361 3360 1 125.010 669.440
3340 3361 3362 1 116.164 669.440
3341 3340 3361 1 114.807 334.720
3341 3350 3351 1 114.843 334.720
3342 3341 3350 1 118.788 669.440
3350 3351 3360 1 124.986 669.440
3351 3360 3361 1 115.117 334.720
3352 3351 3360 1 118.823 669.440
3364 7469 7468 1 109.500 418.400
3364 7469 7470 1 109.500 292.880
3364 7469 7471 1 109.500 292.880
3369 3370 3378 1 125.237 669.440
3369 3389 3388 1 125.010 669.440
3369 3389 3390 1 116.164 669.440
3370 3369 3389 1 114.807 334.720
3370 3378 3379 1 114.843 334.720
3371 3370 3378 1 118.788 669.440
3373 4332 4331 1 109.500 418.400
3373 4332 4333 1 109.500 292.880
3373 4332 4334 1 109.500 292.880
3378 3379 3388 1 124.986 669.440
3379 3388 3389 1 115.117 334.720
3380 3379 3388 1 118.823 669.440
3392 8828 8827 1 109.500 418.400
3392 8828 8829 1 109.500 292.880
3392 8828 8830 1 109.500 292.880
3397 3398 3406 1 125.237 669.440
3397 3416 3415 1 125.010 669.440
3397 3416 3417 1 116.164 669.440
3398 3397 3416 1 114.807 334.720
3398 3406 3407 1 114.843 334.720
3399 3398 3406 1 118.788 669.440
3401 11384 11383 1 109.500 418.400
3401 11384 11385 1 109.500 292.880
3401 11384 11386 1 109.500 292.880
3406 3407 3415 1 124.986 669.440
3407 3415 3416 1 115.117 334.720
3408 3407 3415 1 118.823 669.440
3410 9106 9105 1 109.500 418.400
3410 9106 9107 1 109.500 292.880
3410 9106 9108 1 109.500 292.880
3419 6669 6668 1 109.500 418.400
3419 6669 6670 1 109.500 292.880
3419 6669 6671 1 109.500 292.880
3424 3425 3433 1 125.237 669.440
3424 3443 3442 1 125.010 669.440
3424 3443 3444 1 116.164 669.440
3425 3424 3443 1 114.807 334.720
3425 3433 3434 1 114.843 334.720
3426 3425 3433 1 118.788 669.440
3428 6934 6933 1 109.500 418.400
3428 6934 6935 1 109.500 292.880
3428 6934 6936 1 109.500 292.880
3433 3434 3442 1 124.986 669.440
3434 3442 3443 1 115.117 334.720
3435 3434 3442 1 118.823 669.440
3437 8465 8464 1 109.500 418.400
3437 8465 8466 1 109.500 292.880
3437 8465 8467 1 109.500 292.880
3446 11686 11685 1 109.500 418.400
3446 11686 11687 1 109.500 292.880
3446 11686 11688 1 109.500 292.880
3451 3452 3460 1 125.237 669.440
3451 3471 3470 1 125.010 669.440
3451 3471 3472 1 116.164 669.440
3452 3451 3471 1 114.807 334.720
3452 3460 3461 1 114.843 334.720
3453 3452 3460 1 118.788 669.440
3455 7134 7133 1 109.500 418.400
3455 7134 7135 1 109.500 292.880
3455 7134 7136 1 109.500 292.880
3460 3461 3470 1 124.986 669.440
3461 3470 3471 1 115.117 334.720
3462 3461 3470 1 118.823 669.440
3474 6362 6361 1 109.500 418.400
3474 6362 6363 1 109.500 292.880
3474 6362 6364 1 109.500 292.880
3479 3480 3488 1 125.237 669.440
3479 3498 3497 1 125.010 669.440
3479 3498 3499 1 116.164 669.440
3480 3479 3498 1 114.807 334.720
3480 3488 3489 1 114.843 334.720
3481 3480 3488 1 118.788 669.440
3483 5303 5302 1 109.500 418.400
3483 5303 5304 1 109.500 292.880
3483 5303 5305 1 109.500 292.880
3488 3489 3497 1 124.986 669.440
3489 3497 3498 1 115.117 334.720
3490 3489 3497 1 118.823 669.440
3492 11849 11848 1 109.500 418.400
3492 11849 11850 1 109.500 292.880
3492 11849 11851 1 109.500 292.880
3501 12578 12577 1 109.500 418.400
3501 12578 12579 1 109.500 292.880
3501 12578 12580 1 109.500 292.880
3506 3507 3514 1 125.237 669.440
3506 3524 3523 1 125.010 669.440
3506 3524 3525 1 116.164 669.440
3507 3506 3524 1 114.807 334.720
3507 3514 3515 1 114.843 334.720
3508 3507 3514 1 118.788 669.440
3509 207 206 1 109.500 502.080
3514 3515 3523 1 124.986 669.440
3515 3523 3524 1 115.117 334.720
3516 3515 3523 1 118.823 669.440
3518 11866 11865 1 109.500 418.400
3518 11866 11867 1 109.500 292.880
3518 11866 11868 1 109.500 292.880
3527 6297 6296 1 109.500 418.400
3527 6297 6298 1 109.500 292.880
3527 6297 6299 1 109.500 292.880
3532 3533 3541 1 125.237 669.440
3532 3551 3550 1 125.010 669.440
3532 3551 3552 1 116.164 669.440
3533 3532 3551 1 114.807 334.720
3533 3541 3542 1 114.843 334.720
3534 3533 3541 1 118.788 669.440
3536 5639 5638 1 109.500 418.400
3536 5639 5640 1 109.500 292.880
3536 5639 5641 1 109.500 292.880
3541 3542 3550 1 124.986 669.440
3542 3550 3551 1 115.117 334.720
3543 3542 3550 1 118.823 669.440
3545 7653 7652 1 109.500 418.400
3545 7653 7654 1 109.500 292.880
3545 7653 7655 1 109.500 292.880
3554 3571 3570 1 109.500 418.400
3554 3571 3572 1 109.500 292.880
3554 3571 3573 1 109.500 292.880
3559 3560 3568 1 125.237 669.440
3559 3577 3576 1 125.010 669.440
3559 3577 3578 1 116.164 669.440
3560 3559 3577 1 114.807 334.720
3560 3568 3569 1 114.843 334.720
3561 3560 3568 1 118.788 669.440
3563 6645 6644 1 109.500 418.400
3563 6645 6646 1 109.500 292.880
3563 6645 6647 1 109.500 292.880
3568 3569 3576 1 124.986 669.440
3569 3576 3577 1 115.117 334.720
3570 3569 3576 1 118.823 669.440
3571 3554 3553 1 109.500 502.080
3579 782 781 1 109.500 502.080
3584 3585 3593 1 125.237 669.440
3584 3602 3601 1 125.010 669.440
3584 3602 3603 1 116.164 669.440
3585 3584 3602 1 114.807 334.720
3585 3593 3594 1 114.843 334.720
3586 3585 3593 1 118.788 669.440
3588 8185 8184 1 109.500 418.400
3588 8185 8186 1 109.500 292.880
3588 8185 8187 1 109.500 292.880
3593 3594 3601 1 124.986 669.440
3594 3601 3602 1 115.117 334.720
3595 3594 3601 1 118.823 669.440
3596 1532 1531 1 109.500 502.080
3604 1496 1495 1 109.500 502.080
3609 3610 3618 1 125.237 669.440
3609 3627 3626 1 125.010 669.440
3609 3627 3628 1 116.164 669.440
3610 3609 3627 1 114.807 334.720
3610 3618 3619 1 114.843 334.720
3611 3610 3618 1 118.788 669.440
3613 12394 12393 1 109.500 418.400
3613 12394 12395 1 109.500 292.880
3613 12394 12396 1 109.500 292.880
3618 3619 3626 1 124.986 669.440
3619 3626 3627 1 115.117 334.720
3620 3619 3626 1 118.823 669.440
3621 2958 2957 1 109.500 502.080
3630 5286 5285 1 109.500 418.400
3630 5286 5287 1 109.500 292.880
3630 5286 5288 1 109.500 292.880
3635 3636 3643 1 125.237 669.440
3635 3653 3652 1 125.010 669.440
3635 3653 3654 1 116.164 669.440
3636 3635 3653 1 114.807 334.720
3636 3643 3644 1 114.843 334.720
3637 3636 3643 1 118.788 669.440
3638 1101 1100 1 109.500 502.080
3643 3644 3652 1 124.986 669.440
3644 3652 3653 1 115.117 334.720
3645 3644 3652 1 118.823 669.440
3647 10053 10052 1 109.500 418.400
3647 10053 10054 1 109.500 292.880
3647 10053 10055 1 109.500 292.880
3655 2192 2191 1 109.500 502.080
3660 3661 3670 1 125.237 669.440
3660 3680 3679 1 125.010 669.440
3660 3680 3681 1 116.164 669.440
3661 3660 3680 1 114.807 334.720
3661 3670 3671 1 114.843 334.720
3662 3661 3670 1 118.788 669.440
3670 3671 3679 1 124.986 669.440
3671 3679 3680 1 115.117 334.720
3672 3671 3679 1 118.823 669.440
3674 5519 5518 1 109.500 418.400
3674 5519 5520 1 109.500 292.880
3674 5519 5521 1 109.500 292.880
3683 6109 6108 1 109.500 418.400
3683 6109 6110 1 109.500 292.880
3683 6109 6111 1 109.500 292.880
3688 3689 3697 1 125.237 669.440
3688 3707 3706 1 125.010 669.440
3688 3707 3708 1 116.164 669.440
3689 3688 3707 1 114.807 334.720
3689 3697 3698 1 114.843 334.720
3690 3689 3697 1 118.788 669.440
3692 12444 12443 1 109.500 418.400
3692 12444 12445 1 109.500 292.880
3692 12444 12446 1 109.500 292.880
3697 3698 3706 1 124.986 669.440
3698 3706 3707 1 115.117 334.720
3699 3698 3706 1 118.823 669.440
3701 11800 11799 1 109.500 418.400
3701 11800 11801 1 109.500 292.880
3701 11800 11802 1 109.500 292.880
3709 2463 2462 1 109.500 502.080
3714 3715 3723 1 125.237 669.440
3714 3733 3732 1 125.010 669.440
3714 3733 3734 1 116.164 669.440
3715 3714 3733 1 114.807 334.720
3715 3723 3724 1 114.843 334.720
3716 3715 3723 1 118.788 669.440
3718 5875 5874 1 109.500 418.400
3718 5875 5876 1 109.500 292.880
3718 5875 5877 1 109.500 292.880
3723 3724 3732 1 124.986 669.440
3724 3732 3733 1 115.117 334.720
3725 3724 3732 1 118.823 669.440
3727 12049 12048 1 109.500 418.400
3727 12049 12050 1 109.500 292.880
3727 12049 12051 1 109.500 292.880
3736 12924 12923 1 109.500 418.400
3736 12924 12925 1 109.500 292.880
3736 12924 12926 1 109.500 292.880
3741 3742 3750 1 125.237 669.440
3741 3759 3758 1 125.010 669.440
3741 3759 3760 1 116.164 669.440
3742 3741 3759 1 114.807 334.720
3742 3750 3751 1 114.843 334.720
3743 3742 3750 1 118.788 669.440
3745 7807 7806 1 109.500 418.400
3745 7807 7808 1 109.500 292.880
3745 7807 7809 1 109.500 292.880
3750 3751 3758 1 124.986 669.440
3751 3758 3759 1 115.117 334.720
3752 3751 3758 1 118.823 669.440
3753 1585 1584 1 109.500 502.080
3762 11304 11303 1 109.500 418.400
3762 11304 11305 1 109.500 292.880
3762 11304 11306 1 109.500 292.880
3767 3768 3777 1 125.237 669.440
3767 3787 3786 1 125.010 669.440
3767 3787 3788 1 116.164 669.440
3768 3767 3787 1 114.807 334.720
3768 3777 3778 1 114.843 334.720
3769 3768 3777 1 118.788 669.440
3777 3778 3786 1 124.986 669.440
3778 3786 3787 1 115.117 334.720
3779 3778 3786 1 118.823 669.440
3781 11890 11889 1 109.500 418.400
3781 11890 11891 1 109.500 292.880
3781 11890 11892 1 109.500 292.880
3790 9217 9216 1 109.500 418.400
3790 9217 9218 1 109.500 292.880
3790 9217 9219 1 109.500 292.880
3795 3796 3803 1 125.237 669.440
3795 3813 3812 1 125.010 669.440
3795 3813 3814 1 116.164 669.440
3796 3795 3813 1 114.807 334.720
3796 3803 3804 1 114.843 334.720
3797 3796 3803 1 118.788 669.440
3798 1351 1350 1 109.500 502.080
3803 3804 3812 1 124.986 669.440
3804 3812 3813 1 115.117 334.720
3805 3804 3812 1 118.823 669.440
3807 10911 10910 1 109.500 418.400
3807 10911 10912 1 109.500 292.880
3807 10911 10913 1 109.500 292.880
3815 180 179 1 109.500 502.080
3820 3821 3829 1 125.237 669.440
3820 3838 3837 1 125.010 669.440
3820 3838 3839 1 116.164 669.440
3821 3820 3838 1 114.807 334.720
3821 3829 3830 1 114.843 334.720
3822 3821 3829 1 118.788 669.440
3824 5399 5398 1 109.500 418.400
3824 5399 5400 1 109.500 292.880
3824 5399 5401 1 109.500 292.880
3829 3830 3837 1 124.986 669.440
3830 3837 3838 1 115.117 334.720
3831 3830 3837 1 118.823 669.440
3832 1469 1468 1 109.500 502.080
3841 4508 4507 1 109.500 418.400
3841 4508 4509 1 109.500 292.880
3841 4508 4510 1 109.500 292.880
3846 3847 3855 1 125.237 669.440
3846 3865 3864 1 125.010 669.440
3846 3865 3866 1 116.164 669.440
3847 3846 3865 1 114.807 334.720
3847 3855 3856 1 114.843 334.720
3848 3847 3855 1 118.788 669.440
3850 11124 11123 1 109.500 418.400
3850 11124 11125 1 109.500 292.880
3850 11124 11126 1 109.500 292.880
3855 3856 3864 1 124.986 669.440
3856 3864 3865 1 115.117 334.720
3857 3856 3864 1 118.823 669.440
3859 11392 11391 1 109.500 418.400
3859 11392 11393 1 109.500 292.880
3859 11392 11394 1 109.500 292.880
3867 2050 2049 1 109.500 502.080
3872 3873 3881 1 125.237 669.440
3872 3892 3891 1 125.010 669.440
3872 3892 3893 1 116.164 669.440
3873 3872 3892 1 114.807 334.720
3873 3881 3882 1 114.843 334.720
3874 3873 3881 1 118.788 669.440
3876 5250 5249 1 109.500 418.400
3876 5250 5251 1 109.500 292.880
3876 5250 5252 1 109.500 292.880
3881 3882 3891 1 124.986 669.440
3882 3891 3892 1 115.117 334.720
3883 3882 3891 1 118.823 669.440
3895 5825 5824 1 109.500 418.400
3895 5825 5826 1 109.500 292.880
3895 5825 5827 1 109.500 292.880
3900 3901 3910 1 125.237 669.440
3900 3919 3918 1 125.010 669.440
3900 3919 3920 1 116.164 669.440
3901 3900 3919 1 114.807 334.720
3901 3910 3911 1 114.843 334.720
3902 3901 3910 1 118.788 669.440
3910 3911 3918 1 124.986 669.440
3911 3918 3919 1 115.117 334.720
3912 3911 3918 1 118.823 669.440
3913 1523 1522 1 109.500 502.080
3922 7882 7881 1 109.500 418.400
3922 7882 7883 1 109.500 292.880
3922 7882 7884 1 109.500 292.880
3927 3928 3936 1 125.237 669.440
3927 3946 3945 1 125.010 669.440
3927 3946 3947 1 116.164 669.440
3928 3927 3946 1 114.807 334.720
3928 3936 3937 1 114.843 334.720
3929 3928 3936 1 118.788 669.440
3931 12700 12699 1 109.500 418.400
3931 12700 12701 1 109.500 292.880
3931 12700 12702 1 109.500 292.880
3936 3937 3945 1 124.986 669.440
3937 3945 3946 1 115.117 334.720
3938 3937 3945 1 118.823 669.440
3940 5858 5857 1 109.500 418.400
3940 5858 5859 1 109.500 292.880
3940 5858 5860 1 109.500 292.880
3949 8388 8387 1 109.500 418.400
3949 8388 8389 1 109.500 292.880
3949 8388 8390 1 109.500 292.880
3954 3955 3963 1 125.237 669.440
3954 3974 3973 1 125.010 669.440
3954 3974 3975 1 116.164 669.440
3955 3954 3974 1 114.807 334.720
3955 3963 3964 1 114.843 334.720
3956 3955 3963 1 118.788 669.440
3958 10045 10044 1 109.500 418.400
3958 10045 10046 1 109.500 292.880
3958 10045 10047 1 109.500 292.880
3963 3964 3973 1 124.986 669.440
3964 3973 3974 1 115.117 334.720
3965 3964 3973 1 118.823 669.440
3976 553 552 1 109.500 502.080
3981 3982 3989 1 125.237 669.440
3981 3999 3998 1 125.010 669.440
3981 3999 4000 1 116.164 669.440
3982 3981 3999 1 114.807 334.720
3982 3989 3990 1 114.843 334.720
3983 3982 3989 1 118.788 669.440
3984 1987 1986 1 109.500 502.080
3989 3990 3998 1 124.986 669.440
3990 3998 3999 1 115.117 334.720
3991 3990 3998 1 118.823 669.440
3993 12740 12739 1 109.500 418.400
3993 12740 12741 1 109.500 292.880
3993 12740 12742 1 109.500 292.880
4002 11816 11815 1 109.500 418.400
4002 11816 11817 1 109.500 292.880
4002 11816 11818 1 109.500 292.880
4007 4008 4016 1 125.237 669.440
4007 4026 4025 1 125.010 669.440
4007 4026 4027 1 116.164 669.440
4008 4007 4026 1 114.807 334.720
4008 4016 4017 1 114.843 334.720
4009 4008 4016 1 118.788 669.440
4011 7547 7546 1 109.500 418.400
4011 7547 7548 1 109.500 292.880
4011 7547 7549 1 109.500 292.880
4016 4017 4025 1 124.986 669.440
4017 4025 4026 1 115.117 334.720
4018 4017 4025 1 118.823 669.440
4020 12091 12090 1 109.500 418.400
4020 12091 12092 1 109.500 292.880
4020 12091 12093 1 109.500 292.880
4029 8006 8005 1 109.500 418.400
4029 8006 8007 1 109.500 292.880
4029 8006 8008 1 109.500 292.880
4034 4035 4043 1 125.237 669.440
4034 4052 4051 1 125.010 669.440
4034 4052 4053 1 116.164 669.440
4035 4034 4052 1 114.807 334.720
4035 4043 4044 1 114.843 334.720
4036 4035 4043 1 118.788 669.440
4038 6448 6447 1 109.500 418.400
4038 6448 6449 1 109.500 292.880
4038 6448 6450 1 109.500 292.880
4043 4044 4051 1 124.986 669.440
4044 4051 4052 1 115.117 334.720
4045 4044 4051 1 118.823 669.440
4046 2616 2615 1 109.500 502.080
4055 9258 9257 1 109.500 418.400
4055 9258 9259 1 109.500 292.880
4055 9258 9260 1 109.500 292.880
4060 4061 4069 1 125.237 669.440
4060 4078 4077 1 125.010 669.440
4060 4078 4079 1 116.164 669.440
4061 4060 4078 1 114.807 334.720
4061 4069 4070 1 114.843 334.720
4062 4061 4069 1 118.788 669.440
4064 6985 6984 1 109.500 418.400
4064 6985 6986 1 109.500 292.880
4064 6985 6987 1 109.500 292.880
4069 4070 4077 1 124.986 669.440
4070 4077 4078 1 115.117 334.720
4071 4070 4077 1 118.823 669.440
4072 272 271 1 109.500 502.080
4080 1045 1044 1 109.500 502.080
4085 4086 4095 1 125.237 669.440
4085 4105 4104 1 125.010 669.440
4085 4105 4106 1 116.164 669.440
4086 4085 4105 1 114.807 334.720
4086 4095 4096 1 114.843 334.720
4087 4086 4095 1 118.788 669.440
4095 4096 4104 1 124.986 669.440
4096 4104 4105 1 115.117 334.720
4097 4096 4104 1 118.823 669.440
4099 9334 9333 1 109.500 418.400
4099 9334 9335 1 109.500 292.880
4099 9334 9336 1 109.500 292.880
4108 9729 9728 1 109.500 418.400
4108 9729 9730 1 109.500 292.880
4108 9729 9731 1 109.500 292.880
4113 4114 4122 1 125.237 669.440
4113 4132 4131 1 125.010 669.440
4113 4132 4133 1 116.164 669.440
4114 4113 4132 1 114.807 334.720
4114 4122 4123 1 114.843 334.720
4115 4114 4122 1 118.788 669.440
4117 6604 6603 1 109.500 418.400
4117 6604 6605 1 109.500 292.880
4117 6604 6606 1 109.500 292.880
4122 4123 4131 1 124.986 669.440
4123 4131 4132 1 115.117 334.720
4124 4123 4131 1 118.823 669.440
4126 7351 7350 1 109.500 418.400
4126 7351 7352 1 109.500 292.880
4126 7351 7353 1 109.500 292.880
4134 3202 3201 1 109.500 502.080
4139 4140 4148 1 125.237 669.440
4139 4157 4156 1 125.010 669.440
4139 4157 4158 1 116.164 669.440
4140 4139 4157 1 114.807 334.720
4140 4148 4149 1 114.843 334.720
4141 4140 4148 1 118.788 669.440
4143 5841 5840 1 109.500 418.400
4143 5841 5842 1 109.500 292.880
4143 5841 5843 1 109.500 292.880
4148 4149 4156 1 124.986 669.440
4149 4156 4157 1 115.117 334.720
4150 4149 4156 1 118.823 669.440
4151 62 61 1 109.500 502.080
4160 12964 12963 1 109.500 418.400
4160 12964 12965 1 109.500 292.880
4160 12964 12966 1 109.500 292.880
4165 4166 4173 1 125.237 669.440
4165 4184 4183 1 125.010 669.440
4165 4184 4185 1 116.164 669.440
4166 4165 4184 1 114.807 334.720
4166 4173 4174 1 114.843 334.720
4167 4166 4173 1 118.788 669.440
4168 1442 1441 1 109.500 502.080
4173 4174 4183 1 124.986 669.440
4174 4183 4184 1 115.117 334.720
4175 4174 4183 1 118.823 669.440
4187 6494 6493 1 109.500 418.400
4187 6494 6495 1 109.500 292.880
4187 6494 6496 1 109.500 292.880
4192 4193 4202 1 125.237 669.440
4192 4212 4211 1 125.010 669.440
4192 4212 4213 1 116.164 669.440
4193 4192 4212 1 114.807 334.720
4193 4202 4203 1 114.843 334.720
4194 4193 4202 1 118.788 669.440
4202 4203 4211 1 124.986 669.440
4203 4211 4212 1 115.117 334.720
4204 4203 4211 1 118.823 669.440
4206 11981 11980 1 109.500 418.400
4206 11981 11982 1 109.500 292.880
4206 11981 11983 1 109.500 292.880
4215 8499 8498 1 109.500 418.400
4215 8499 8500 1 109.500 292.880
4215 8499 8501 1 109.500 292.880
4220 4221 4230 1 125.237 669.440
4220 4240 4239 1 125.010 669.440
4220 4240 4241 1 116.164 669.440
4221 4220 4240 1 114.807 334.720
4221 4230 4231 1 114.843 334.720
4222 4221 4230 1 118.788 669.440
4230 4231 4239 1 124.986 669.440
4231 4239 4240 1 115.117 334.720
4232 4231 4239 1 118.823 669.440
4234 11610 11609 1 109.500 418.400
4234 11610 11611 1 109.500 292.880
4234 11610 11612 1 109.500 292.880
4243 6545 6544 1 109.500 418.400
4243 6545 6546 1 109.500 292.880
4243 6545 6547 1 109.500 292.880
4248 4249 4257 1 125.237 669.440
4248 4268 4267 1 125.010 669.440
4248 4268 4269 1 116.164 669.440
4249 4248 4268 1 114.807 334.720
4249 4257 4258 1 114.843 334.720
4250 4249 4257 1 118.788 669.440
4252 12536 12535 1 109.500 418.400
4252 12536 12537 1 109.500 292.880
4252 12536 12538 1 109.500 292.880
4257 4258 4267 1 124.986 669.440
4258 4267 4268 1 115.117 334.720
4259 4258 4267 1 118.823 669.440
4271 4611 4610 1 109.500 418.400
4271 4611 4612 1 109.500 292.880
4271 4611 4613 1 109.500 292.880
4276 4277 4284 1 125.237 669.440
4276 4295 4294 1 125.010 669.440
4276 4295 4296 1 116.164 669.440
4277 4276 4295 1 114.807 334.720
4277 4284 4285 1 114.843 334.720
4278 4277 4284 1 118.788 669.440
4279 1388 1387 1 109.500 502.080
4284 4285 4294 1 124.986 669.440
4285 4294 4295 1 115.117 334.720
4286 4285 4294 1 118.823 669.440
4298 12075 12074 1 109.500 418.400
4298 12075 12076 1 109.500 292.880
4298 12075 12077 1 109.500 292.880
4303 4304 4312 1 125.237 669.440
4303 4321 4320 1 125.010 669.440
4303 4321 4322 1 116.164 669.440
4304 4303 4321 1 114.807 334.720
4304 4312 4313 1 114.843 334.720
4305 4304 4312 1 118.788 669.440
4307 5666 5665 1 109.500 418.400
4307 5666 5667 1 109.500 292.880
4307 5666 5668 1 109.500 292.880
4312 4313 4320 1 124.986 669.440
4313 4320 4321 1 115.117 334.720
4314 4313 4320 1 118.823 669.440
4315 15 14 1 109.500 502.080
4324 8193 8192 1 109.500 418.400
4324 8193 8194 1 109.500 292.880
4324 8193 8195 1 109.500 292.880
4329 4330 4337 1 125.237 669.440
4329 4347 4346 1 125.010 669.440
4329 4347 4348 1 116.164 669.440
4330 4329 4347 1 114.807 334.720
4330 4337 4338 1 114.843 334.720
4331 4330 4337 1 118.788 669.440
4332 3373 3372 1 109.500 502.080
4337 4338 4346 1 124.986 669.440
4338 4346 4347 1 115.117 334.720
4339 4338 4346 1 118.823 669.440
4341 10460 10459 1 109.500 418.400
4341 10460 10461 1 109.500 292.880
4341 10460 10462 1 109.500 292.880
4350 5969 5968 1 109.500 418.400
4350 5969 5970 1 109.500 292.880
4350 5969 5971 1 109.500 292.880
4355 4356 4363 1 125.237 669.440
4355 4372 4371 1 125.010 669.440
4355 4372 4373 1 116.164 669.440
4356 4355 4372 1 114.807 334.720
4356 4363 4364 1 114.843 334.720
4357 4356 4363 1 118.788 669.440
4358 1916 1915 1 109.500 502.080
4363 4364 4371 1 124.986 669.440
4364 4371 4372 1 115.117 334.720
4365 4364 4371 1 118.823 669.440
4366 3273 3272 1 109.500 502.080
4374 2498 2497 1 109.500 502.080
4379 4380 4388 1 125.237 669.440
4379 4398 4397 1 125.010 669.440
4379 4398 4399 1 116.164 669.440
4380 4379 4398 1 114.807 334.720
4380 4388 4389 1 114.843 334.720
4381 4380 4388 1 118.788 669.440
4383 12314 12313 1 109.500 418.400
4383 12314 12315 1 109.500 292.880
4383 12314 12316 1 109.500 292.880
4388 4389 4397 1 124.986 669.440
4389 4397 4398 1 115.117 334.720
4390 4389 4397 1 118.823 669.440
4392 7617 7616 1 109.500 418.400
4392 7617 7618 1 109.500 292.880
4392 7617 7619 1 109.500 292.880
4407 4408 4416 1 125.237 669.440
4407 4426 4425 1 125.010 669.440
4407 4426 4427 1 116.164 669.440
4408 4407 4426 1 114.807 334.720
4408 4416 4417 1 114.843 334.720
4409 4408 4416 1 118.788 669.440
4411 7237 7236 1 109.500 418.400
4411 7237 7238 1 109.500 292.880
4411 7237 7239 1 109.500 292.880
4416 4417 4425 1 124.986 669.440
4417 4425 4426 1 115.117 334.720
4418 4417 4425 1 118.823 669.440
4420 8058 8057 1 109.500 418.400
4420 8058 8059 1 109.500 292.880
4420 8058 8060 1 109.500 292.880
4429 5613 5612 1 109.500 418.400
4429 5613 5614 1 109.500 292.880
4429 5613 5615 1 109.500 292.880
4434 4435 4443 1 125.237 669.440
4434 4453 4452 1 125.010 669.440
4434 4453 4454 1 116.164 669.440
4435 4434 4453 1 114.807 334.720
4435 4443 4444 1 114.843 334.720
4436 4435 4443 1 118.788 669.440
4438 8599 8598 1 109.500 418.400
4438 8599 8600 1 109.500 292.880
4438 8599 8601 1 109.500 292.880
4443 4444 4452 1 124.986 669.440
4444 4452 4453 1 115.117 334.720
4445 4444 4452 1 118.823 669.440
4447 10533 10532 1 109.500 418.400
4447 10533 10534 1 109.500 292.880
4447 10533 10535 1 109.500 292.880
4456 10667 10666 1 109.500 418.400
4456 10667 10668 1 109.500 292.880
4456 10667 10669 1 109.500 292.880
4461 4462 4470 1 125.237 669.440
4461 4480 4479 1 125.010 669.440
4461 4480 4481 1 116.164 669.440
4462 4461 4480 1 114.807 334.720
4462 4470 4471 1 114.843 334.720
4463 4462 4470 1 118.788 669.440
4465 9561 9560 1 109.500 418.400
4465 9561 9562 1 109.500 292.880
4465 9561 9563 1 109.500 292.880
4470 4471 4479 1 124.986 669.440
4471 4479 4480 1 115.117 334.720
4472 4471 4479 1 118.823 669.440
4474 7443 7442 1 109.500 418.400
4474 7443 7444 1 109.500 292.880
4474 7443 7445 1 109.500 292.880
4483 11060 11059 1 109.500 418.400
4483 11060 11061 1 109.500 292.880
4483 11060 11062 1 109.500 292.880
4488 4489 4496 1 125.237 669.440
4488 4506 4505 1 125.010 669.440
4488 4506 4507 1 116.164 669.440
4489 4488 4506 1 114.807 334.720
4489 4496 4497 1 114.843 334.720
4490 4489 4496 1 118.788 669.440
4491 326 325 1 109.500 502.080
4496 4497 4505 1 124.986 669.440
4497 4505 4506 1 115.117 334.720
4498 4497 4505 1 118.823 669.440
4500 7890 7889 1 109.500 418.400
4500 7890 7891 1 109.500 292.880
4500 7890 7892 1 109.500 292.880
4508 3841 3840 1 109.500 502.080
4513 4514 4522 1 125.237 669.440
4513 4531 4530 1 125.010 669.440
4513 4531 4532 1 116.164 669.440
4514 4513 4531 1 114.807 334.720
4514 4522 4523 1 114.843 334.720
4515 4514 4522 1 118.788 669.440
4517 9501 9500 1 109.500 418.400
4517 9501 9502 1 109.500 292.880
4517 9501 9503 1 109.500 292.880
4522 4523 4530 1 124.986 669.440
4523 4530 4531 1 115.117 334.720
4524 4523 4530 1 118.823 669.440
4525 581 580 1 109.500 502.080
4534 10978 10977 1 109.500 418.400
4534 10978 10979 1 109.500 292.880
4534 10978 10980 1 109.500 292.880
4539 4540 4547 1 125.237 669.440
4539 4556 4555 1 125.010 669.440
4539 4556 4557 1 116.164 669.440
4540 4539 4556 1 114.807 334.720
4540 4547 4548 1 114.843 334.720
4541 4540 4547 1 118.788 669.440
4542 2739 2738 1 109.500 502.080
4547 4548 4555 1 124.986 669.440
4548 4555 4556 1 115.117 334.720
4549 4548 4555 1 118.823 669.440
4550 2837 2836 1 109.500 502.080
4559 10500 10499 1 109.500 418.400
4559 10500 10501 1 109.500 292.880
4559 10500 10502 1 109.500 292.880
4564 4565 4573 1 125.237 669.440
4564 4582 4581 1 125.010 669.440
4564 4582 4583 1 116.164 669.440
4565 4564 4582 1 114.807 334.720
4565 4573 4574 1 114.843 334.720
4566 4565 4573 1 118.788 669.440
4568 4972 4971 1 109.500 418.400
4568 4972 4973 1 109.500 292.880
4568 4972 4974 1 109.500 292.880
4573 4574 4581 1 124.986 669.440
4574 4581 4582 1 115.117 334.720
4575 4574 4581 1 118.823 669.440
4576 1773 1772 1 109.500 502.080
4585 6414 6413 1 109.500 418.400
4585 6414 6415 1 109.500 292.880
4585 6414 6416 1 109.500 292.880
4590 4591 4599 1 125.237 669.440
4590 4609 4608 1 125.010 669.440
4590 4609 4610 1 116.164 669.440
4591 4590 4609 1 114.807 334.720
4591 4599 4600 1 114.843 334.720
4592 4591 4599 1 118.788 669.440
4594 12788 12787 1 109.500 418.400
4594 12788 12789 1 109.500 292.880
4594 12788 12790 1 109.500 292.880
4599 4600 4608 1 124.986 669.440
4600 4608 4609 1 115.117 334.720
4601 4600 4608 1 118.823 669.440
4603 11449 11448 1 109.500 418.400
4603 11449 11450 1 109.500 292.880
4603 11449 11451 1 109.500 292.880
4611 4271 4270 1 109.500 502.080
4616 4617 4625 1 125.237 669.440
4616 4636 4635 1 125.010 669.440
4616 4636 4637 1 116.164 669.440
4617 4616 4636 1 114.807 334.720
4617 4625 4626 1 114.843 334.720
4618 4617 4625 1 118.788 669.440
4620 10135 10134 1 109.500 418.400
4620 10135 10136 1 109.500 292.880
4620 10135 10137 1 109.500 292.880
4625 4626 4635 1 124.986 669.440
4626 4635 4636 1 115.117 334.720
4627 4626 4635 1 118.823 669.440
4639 9168 9167 1 109.500 418.400
4639 9168 9169 1 109.500 292.880
4639 9168 9170 1 109.500 292.880
4644 4645 4653 1 125.237 669.440
4644 4663 4662 1 125.010 669.440
4644 4663 4664 1 116.164 669.440
4645 4644 4663 1 114.807 334.720
4645 4653 4654 1 114.843 334.720
4646 4645 4653 1 118.788 669.440
4648 10768 10767 1 109.500 418.400
4648 10768 10769 1 109.500 292.880
4648 10768 10770 1 109.500 292.880
4653 4654 4662 1 124.986 669.440
4654 4662 4663 1 115.117 334.720
4655 4654 4662 1 118.823 669.440
4657 5354 5353 1 109.500 418.400
4657 5354 5355 1 109.500 292.880
4657 5354 5356 1 109.500 292.880
4666 10492 10491 1 109.500 418.400
4666 10492 10493 1 109.500 292.880
4666 10492 10494 1 109.500 292.880
4671 4672 4680 1 125.237 669.440
4671 4690 4689 1 125.010 669.440
4671 4690 4691 1 116.164 669.440
4672 4671 4690 1 114.807 334.720
4672 4680 4681 1 114.843 334.720
4673 4672 4680 1 118.788 669.440
4675 11543 11542 1 109.500 418.400
4675 11543 11544 1 109.500 292.880
4675 11543 11545 1 109.500 292.880
4680 4681 4689 1 124.986 669.440
4681 4689 4690 1 115.117 334.720
4682 4681 4689 1 118.823 669.440
4684 10593 10592 1 109.500 418.400
4684 10593 10594 1 109.500 292.880
4684 10593 10595 1 109.500 292.880
4692 3326 3325 1 109.500 502.080
4697 4698 4706 1 125.237 669.440
4697 4715 4714 1 125.010 669.440
4697 4715 4716 1 116.164 669.440
4698 4697 4715 1 114.807 334.720
4698 4706 4707 1 114.843 334.720
4699 4698 4706 1 118.788 669.440
4701 11352 11351 1 109.500 418.400
4701 11352 11353 1 109.500 292.880
4701 11352 11354 1 109.500 292.880
4706 4707 4714 1 124.986 669.440
4707 4714 4715 1 115.117 334.720
4708 4707 4714 1 118.823 669.440
4709 844 843 1 109.500 502.080
4718 4842 4841 1 109.500 418.400
4718 4842 4843 1 109.500 292.880
4718 4842 4844 1 109.500 292.880
4723 4724 4732 1 125.237 669.440
4723 4742 4741 1 125.010 669.440
4723 4742 4743 1 116.164 669.440
4724 4723 4742 1 114.807 334.720
4724 4732 4733 1 114.843 334.720
4725 4724 4732 1 118.788 669.440
4727 8591 8590 1 109.500 418.400
4727 8591 8592 1 109.500 292.880
4727 8591 8593 1 109.500 292.880
4732 4733 4741 1 124.986 669.440
4733 4741 4742 1 115.117 334.720
4734 4733 4741 1 118.823 669.440
4736 7117 7116 1 109.500 418.400
4736 7117 7118 1 109.500 292.880
4736 7117 7119 1 109.500 292.880
4751 4752 4760 1 125.237 669.440
4751 4770 4769 1 125.010 669.440
4751 4770 4771 1 116.164 669.440
4752 4751 4770 1 114.807 334.720
4752 4760 4761 1 114.843 334.720
4753 4752 4760 1 118.788 669.440
4755 5311 5310 1 109.500 418.400
4755 5311 5312 1 109.500 292.880
4755 5311 5313 1 109.500 292.880
4760 4761 4769 1 124.986 669.440
4761 4769 4770 1 115.117 334.720
4762 4761 4769 1 118.823 669.440
4764 5061 5060 1 109.500 418.400
4764 5061 5062 1 109.500 292.880
4764 5061 5063 1 109.500 292.880
4773 7142 7141 1 109.500 418.400
4773 7142 7143 1 109.500 292.880
4773 7142 7144 1 109.500 292.880
4778 4779 4787 1 125.237 669.440
4778 4797 4796 1 125.010 669.440
4778 4797 4798 1 116.164 669.440
4779 4778 4797 1 114.807 334.720
4779 4787 4788 1 114.843 334.720
4780 4779 4787 1 118.788 669.440
4782 11491 11490 1 109.500 418.400
4782 11491 11492 1 109.500 292.880
4782 11491 11493 1 109.500 292.880
4787 4788 4796 1 124.986 669.440
4788 4796 4797 1 115.117 334.720
4789 4788 4796 1 118.823 669.440
4791 10425 10424 1 109.500 418.400
4791 10425 10426 1 109.500 292.880
4791 10425 10427 1 109.500 292.880
4799 473 472 1 109.500 502.080
4804 4805 4813 1 125.237 669.440
4804 4823 4822 1 125.010 669.440
4804 4823 4824 1 116.164 669.440
4805 4804 4823 1 114.807 334.720
4805 4813 4814 1 114.843 334.720
4806 4805 4813 1 118.788 669.440
4808 12468 12467 1 109.500 418.400
4808 12468 12469 1 109.500 292.880
4808 12468 12470 1 109.500 292.880
4813 4814 4822 1 124.986 669.440
4814 4822 4823 1 115.117 334.720
4815 4814 4822 1 118.823 669.440
4817 8262 8261 1 109.500 418.400
4817 8262 8263 1 109.500 292.880
4817 8262 8264 1 109.500 292.880
4826 9200 9199 1 109.500 418.400
4826 9200 9201 1 109.500 292.880
4826 9200 9202 1 109.500 292.880
4831 4832 4839 1 125.237 669.440
4831 4848 4847 1 125.010 669.440
4831 4848 4849 1 116.164 669.440
4832 4831 4848 1 114.807 334.720
4832 4839 4840 1 114.843 334.720
4833 4832 4839 1 118.788 669.440
4834 1942 1941 1 109.500 502.080
4839 4840 4847 1 124.986 669.440
4840 4847 4848 1 115.117 334.720
4841 4840 4847 1 118.823 669.440
4842 4718 4717 1 109.500 502.080
4851 7435 7434 1 109.500 418.400
4851 7435 7436 1 109.500 292.880
4851 7435 7437 1 109.500 292.880
4856 4857 4865 1 125.237 669.440
4856 4874 4873 1 125.010 669.440
4856 4874 4875 1 116.164 669.440
4857 4856 4874 1 114.807 334.720
4857 4865 4866 1 114.843 334.720
4858 4857 4865 1 118.788 669.440
4860 8990 8989 1 109.500 418.400
4860 8990 8991 1 109.500 292.880
4860 8990 8992 1 109.500 292.880
4865 4866 4873 1 124.986 669.440
4866 4873 4874 1 115.117 334.720
4867 4866 4873 1 118.823 669.440
4868 24 23 1 109.500 502.080
4877 7081 7080 1 109.500 418.400
4877 7081 7082 1 109.500 292.880
4877 7081 7083 1 109.500 292.880
4882 4883 4891 1 125.237 669.440
4882 4901 4900 1 125.010 669.440
4882 4901 4902 1 116.164 669.440
4883 4882 4901 1 114.807 334.720
4883 4891 4892 1 114.843 334.720
4884 4883 4891 1 118.788 669.440
4886 6850 6849 1 109.500 418.400
4886 6850 6851 1 109.500 292.880
4886 6850 6852 1 109.500 292.880
4891 4892 4900 1 124.986 669.440
4892 4900 4901 1 115.117 334.720
4893 4892 4900 1 118.823 669.440
4895 6901 6900 1 109.500 418.400
4895 6901 6902 1 109.500 292.880
4895 6901 6903 1 109.500 292.880
4904 5833 5832 1 109.500 418.400
4904 5833 5834 1 109.500 292.880
4904 5833 5835 1 109.500 292.880
4909 4910 4917 1 125.237 669.440
4909 4926 4925 1 125.010 669.440
4909 4926 4927 1 116.164 669.440
4910 4909 4926 1 114.807 334.720
4910 4917 4918 1 114.843 334.720
4911 4910 4917 1 118.788 669.440
4912 663 662 1 109.500 502.080
4917 4918 4925 1 124.986 669.440
4918 4925 4926 1 115.117 334.720
4919 4918 4925 1 118.823 669.440
4920 2164 2163 1 109.500 502.080
4929 6280 6279 1 109.500 418.400
4929 6280 6281 1 109.500 292.880
4929 6280 6282 1 109.500 292.880
4934 4935 4943 1 125.237 669.440
4934 4954 4953 1 125.010 669.440
4934 4954 4955 1 116.164 669.440
4935 4934 4954 1 114.807 334.720
4935 4943 4944 1 114.843 334.720
4936 4935 4943 1 118.788 669.440
4938 7211 7210 1 109.500 418.400
4938 7211 7212 1 109.500 292.880
4938 7211 7213 1 109.500 292.880
4943 4944 4953 1 124.986 669.440
4944 4953 4954 1 115.117 334.720
4945 4944 4953 1 118.823 669.440
4956 3098 3097 1 109.500 502.080
4961 4962 4969 1 125.237 669.440
4961 4978 4977 1 125.010 669.440
4961 4978 4979 1 116.164 669.440
4962 4961 4978 1 114.807 334.720
4962 4969 4970 1 114.843 334.720
4963 4962 4969 1 118.788 669.440
4964 89 88 1 109.500 502.080
4969 4970 4977 1 124.986 669.440
4970 4977 4978 1 115.117 334.720
4971 4970 4977 1 118.823 669.440
4972 4568 4567 1 109.500 502.080
4981 12756 12755 1 109.500 418.400
4981 12756 12757 1 109.500 292.880
4981 12756 12758 1 109.500 292.880
4986 4987 4995 1 125.237 669.440
4986 5005 5004 1 125.010 669.440
4986 5005 5006 1 116.164 669.440
4987 4986 5005 1 114.807 334.720
4987 4995 4996 1 114.843 334.720
4988 4987 4995 1 118.788 669.440
4990 6198 6197 1 109.500 418.400
4990 6198 6199 1 109.500 292.880
4990 6198 6200 1 109.500 292.880
4995 4996 5004 1 124.986 669.440
4996 5004 5005 1 115.117 334.720
4997 4996 5004 1 118.823 669.440
4999 5415 5414 1 109.500 418.400
4999 5415 5416 1 109.500 292.880
4999 5415 5417 1 109.500 292.880
5014 5015 5023 1 125.237 669.440
5014 5032 5031 1 125.010 669.440
5014 5032 5033 1 116.164 669.440
5015 5014 5032 1 114.807 334.720
5015 5023 5024 1 114.843 334.720
5016 5015 5023 1 118.788 669.440
5018 9978 9977 1 109.500 418.400
5018 9978 9979 1 109.500 292.880
5018 9978 9980 1 109.500 292.880
5023 5024 5031 1 124.986 669.440
5024 5031 5032 1 115.117 334.720
5025 5024 5031 1 118.823 669.440
5026 446 445 1 109.500 502.080
5035 10834 10833 1 109.500 418.400
5035 10834 10835 1 109.500 292.880
5035 10834 10836 1 109.500 292.880
5040 5041 5048 1 125.237 669.440
5040 5059 5058 1 125.010 669.440
5040 5059 5060 1 116.164 669.440
5041 5040 5059 1 114.807 334.720
5041 5048 5049 1 114.843 334.720
5042 5041 5048 1 118.788 669.440
5043 2846 2845 1 109.500 502.080
5048 5049 5058 1 124.986 669.440
5049 5058 5059 1 115.117 334.720
5050 5049 5058 1 118.823 669.440
5061 4764 4763 1 109.500 502.080
5066 5067 5075 1 125.237 669.440
5066 5085 5084 1 125.010 669.440
5066 5085 5086 1 116.164 669.440
5067 5066 5085 1 114.807 334.720
5067 5075 5076 1 114.843 334.720
5068 5067 5075 1 118.788 669.440
5070 7530 7529 1 109.500 418.400
5070 7530 7531 1 109.500 292.880
5070 7530 7532 1 109.500 292.880
5075 5076 5084 1 124.986 669.440
5076 5084 5085 1 115.117 334.720
5077 5076 5084 1 118.823 669.440
5079 11036 11035 1 109.500 418.400
5079 11036 11037 1 109.500 292.880
5079 11036 11038 1 109.500 292.880
5088 6968 6967 1 109.500 418.400
5088 6968 6969 1 109.500 292.880
5088 6968 6970 1 109.500 292.880
5093 5094 5103 1 125.237 669.440
5093 5113 5112 1 125.010 669.440
5093 5113 5114 1 116.164 669.440
5094 5093 5113 1 114.807 334.720
5094 5103 5104 1 114.843 334.720
5095 5094 5103 1 118.788 669.440
5103 5104 5112 1 124.986 669.440
5104 5112 5113 1 115.117 334.720
5105 5104 5112 1 118.823 669.440
5107 11551 11550 1 109.500 418.400
5107 11551 11552 1 109.500 292.880
5107 11551 11553 1 109.500 292.880
5122 5123 5132 1 125.237 669.440
5122 5142 5141 1 125.010 669.440
5122 5142 5143 1 116.164 669.440
5123 5122 5142 1 114.807 334.720
5123 5132 5133 1 114.843 334.720
5124 5123 5132 1 118.788 669.440
5132 5133 5141 1 124.986 669.440
5133 5141 5142 1 115.117 334.720
5134 5133 5141 1 118.823 669.440
5136 7403 7402 1 109.500 418.400
5136 7403 7404 1 109.500 292.880
5136 7403 7405 1 109.500 292.880
5145 6004 6003 1 109.500 418.400
5145 6004 6005 1 109.500 292.880
5145 6004 6006 1 109.500 292.880
5150 5151 5158 1 125.237 669.440
5150 5168 5167 1 125.010 669.440
5150 5168 5169 1 116.164 669.440
5151 5150 5168 1 114.807 334.720
5151 5158 5159 1 114.843 334.720
5152 5151 5158 1 118.788 669.440
5153 1791 1790 1 109.500 502.080
5158 5159 5167 1 124.986 669.440
5159 5167 5168 1 115.117 334.720
5160 5159 5167 1 118.823 669.440
5162 9904 9903 1 109.500 418.400
5162 9904 9905 1 109.500 292.880
5162 9904 9906 1 109.500 292.880
5171 6406 6405 1 109.500 418.400
5171 6406 6407 1 109.500 292.880
5171 6406 6408 1 109.500 292.880
5176 5177 5184 1 125.237 669.440
5176 5194 5193 1 125.010 669.440
5176 5194 5195 1 116.164 669.440
5177 5176 5194 1 114.807 334.720
5177 5184 5185 1 114.843 334.720
5178 5177 5184 1 118.788 669.440
5179 1118 1117 1 109.500 502.080
5184 5185 5193 1 124.986 669.440
5185 5193 5194 1 115.117 334.720
5186 5185 5193 1 118.823 669.440
5188 6712 6711 1 109.500 418.400
5188 6712 6713 1 109.500 292.880
5188 6712 6714 1 109.500 292.880
5197 7755 7754 1 109.500 418.400
5197 7755 7756 1 109.500 292.880
5197 7755 7757 1 109.500 292.880
5202 5203 5211 1 125.237 669.440
5202 5222 5221 1 125.010 669.440
5202 5222 5223 1 116.164 669.440
5203 5202 5222 1 114.807 334.720
5203 5211 5212 1 114.843 334.720
5204 5203 5211 1 118.788 669.440
5206 8549 8548 1 109.500 418.400
5206 8549 8550 1 109.500 292.880
5206 8549 8551 1 109.500 292.880
5211 5212 5221 1 124.986 669.440
5212 5221 5222 1 115.117 334.720
5213 5212 5221 1 118.823 669.440
5225 10110 10109 1 109.500 418.400
5225 10110 10111 1 109.500 292.880
5225 10110 10112 1 109.500 292.880
5230 5231 5238 1 125.237 669.440
5230 5248 5247 1 125.010 669.440
5230 5248 5249 1 116.164 669.440
5231 5230 5248 1 114.807 334.720
5231 5238 5239 1 114.843 334.720
5232 5231 5238 1 118.788 669.440
5233 1216 1215 1 109.500 502.080
5238 5239 5247 1 124.986 669.440
5239 5247 5248 1 115.117 334.720
5240 5239 5247 1 118.823 669.440
5242 10776 10775 1 109.500 418.400
5242 10776 10777 1 109.500 292.880
5242 10776 10778 1 109.500 292.880
5250 3876 3875 1 109.500 502.080
5255 5256 5265 1 125.237 669.440
5255 5275 5274 1 125.010 669.440
5255 5275 5276 1 116.164 669.440
5256 5255 5275 1 114.807 334.720
5256 5265 5266 1 114.843 334.720
5257 5256 5265 1 118.788 669.440
5265 5266 5274 1 124.986 669.440
5266 5274 5275 1 115.117 334.720
5267 5266 5274 1 118.823 669.440
5269 9233 9232 1 109.500 418.400
5269 9233 9234 1 109.500 292.880
5269 9233 9235 1 109.500 292.880
5278 5581 5580 1 109.500 418.400
5278 5581 5582 1 109.500 292.880
5278 5581 5583 1 109.500 292.880
5283 5284 5291 1 125.237 669.440
5283 5301 5300 1 125.010 669.440
5283 5301 5302 1 116.164 669.440
5284 5283 5301 1 114.807 334.720
5284 5291 5292 1 114.843 334.720
5285 5284 5291 1 118.788 669.440
5286 3630 3629 1 109.500 502.080
5291 5292 5300 1 124.986 669.440
5292 5300 5301 1 115.117 334.720
5293 5292 5300 1 118.823 669.440
5295 8921 8920 1 109.500 418.400
5295 8921 8922 1 109.500 292.880
5295 8921 8923 1 109.500 292.880
5303 3483 3482 1 109.500 502.080
5308 5309 5316 1 125.237 669.440
5308 5326 5325 1 125.010 669.440
5308 5326 5327 1 116.164 669.440
5309 5308 5326 1 114.807 334.720
5309 5316 5317 1 114.843 334.720
5310 5309 5316 1 118.788 669.440
5311 4755 4754 1 109.500 502.080
5316 5317 5325 1 124.986 669.440
5317 5325 5326 1 115.117 334.720
5318 5317 5325 1 118.823 669.440
5320 11068 11067 1 109.500 418.400
5320 11068 11069 1 109.500 292.880
5320 11068 11070 1 109.500 292.880
5335 5336 5343 1 125.237 669.440
5335 5352 5351 1 125.010 669.440
5335 5352 5353 1 116.164 669.440
5336 5335 5352 1 114.807 334.720
5336 5343 5344 1 114.843 334.720
5337 5336 5343 1 118.788 669.440
5338 2820 2819 1 109.500 502.080
5343 5344 5351 1 124.986 669.440
5344 5351 5352 1 115.117 334.720
5345 5344 5351 1 118.823 669.440
5346 2094 2093 1 109.500 502.080
5354 4657 4656 1 109.500 502.080
5359 5360 5368 1 125.237 669.440
5359 5377 5376 1 125.010 669.440
5359 5377 5378 1 116.164 669.440
5360 5359 5377 1 114.807 334.720
5360 5368 5369 1 114.843 334.720
5361 5360 5368 1 118.788 669.440
5363 9402 9401 1 109.500 418.400
5363 9402 9403 1 109.500 292.880
5363 9402 9404 1 109.500 292.880
5368 5369 5376 1 124.986 669.440
5369 5376 5377 1 115.117 334.720
5370 5369 5376 1 118.823 669.440
5371 308 307 1 109.500 502.080
5386 5387 5396 1 125.237 669.440
5386 5405 5404 1 125.010 669.440
5386 5405 5406 1 116.164 669.440
5387 5386 5405 1 114.807 334.720
5387 5396 5397 1 114.843 334.720
5388 5387 5396 1 118.788 669.440
5396 5397 5404 1 124.986 669.440
5397 5404 5405 1 115.117 334.720
5398 5397 5404 1 118.823 669.440
5399 3824 3823 1 109.500 502.080
5407 1460 1459 1 109.500 502.080
5412 5413 5420 1 125.237 669.440
5412 5429 5428 1 125.010 669.440
5412 5429 5430 1 116.164 669.440
5413 5412 5429 1 114.807 334.720
5413 5420 5421 1 114.843 334.720
5414 5413 5420 1 118.788 669.440
5415 4999 4998 1 109.500 502.080
5420 5421 5428 1 124.986 669.440
5421 5428 5429 1 115.117 334.720
5422 5421 5428 1 118.823 669.440
5423 1960 1959 1 109.500 502.080
5432 7907 7906 1 109.500 418.400
5432 7907 7908 1 109.500 292.880
5432 7907 7909 1 109.500 292.880
5437 5438 5446 1 125.237 669.440
5437 5456 5455 1 125.010 669.440
5437 5456 5457 1 116.164 669.440
5438 5437 5456 1 114.807 334.720
5438 5446 5447 1 114.843 334.720
5439 5438 5446 1 118.788 669.440
5441 11344 11343 1 109.500 418.400
5441 11344 11345 1 109.500 292.880
5441 11344 11346 1 109.500 292.880
5446 5447 5455 1 124.986 669.440
5447 5455 5456 1 115.117 334.720
5448 5447 5455 1 118.823 669.440
5450 9032 9031 1 109.500 418.400
5450 9032 9033 1 109.500 292.880
5450 9032 9034 1 109.500 292.880
5459 7419 7418 1 109.500 418.400
5459 7419 7420 1 109.500 292.880
5459 7419 7421 1 109.500 292.880
5464 5465 5472 1 125.237 669.440
5464 5482 5481 1 125.010 669.440
5464 5482 5483 1 116.164 669.440
5465 5464 5482 1 114.807 334.720
5465 5472 5473 1 114.843 334.720
5466 5465 5472 1 118.788 669.440
5467 3264 3263 1 109.500 502.080
5472 5473 5481 1 124.986 669.440
5473 5481 5482 1 115.117 334.720
5474 5473 5481 1 118.823 669.440
5476 12107 12106 1 109.500 418.400
5476 12107 12108 1 109.500 292.880
5476 12107 12109 1 109.500 292.880
5485 11336 11335 1 109.500 418.400
5485 11336 11337 1 109.500 292.880
5485 11336 11338 1 109.500 292.880
5490 5491 5498 1 125.237 669.440
5490 5509 5508 1 125.010 669.440
5490 5509 5510 1 116.164 669.440
5491 5490 5509 1 114.807 334.720
5491 5498 5499 1 114.843 334.720
5492 5491 5498 1 118.788 669.440
5493 2238 2237 1 109.500 502.080
5498 5499 5508 1 124.986 669.440
5499 5508 5509 1 115.117 334.720
5500 5499 5508 1 118.823 669.440
5511 2489 2488 1 109.500 502.080
5516 5517 5524 1 125.237 669.440
5516 5534 5533 1 125.010 669.440
5516 5534 5535 1 116.164 669.440
5517 5516 5534 1 114.807 334.720
5517 5524 5525 1 114.843 334.720
5518 5517 5524 1 118.788 669.440
5519 3674 3673 1 109.500 502.080
5524 5525 5533 1 124.986 669.440
5525 5533 5534 1 115.117 334.720
5526 5525 5533 1 118.823 669.440
5528 7195 7194 1 109.500 418.400
5528 7195 7196 1 109.500 292.880
5528 7195 7197 1 109.500 292.880
5537 12724 12723 1 109.500 418.400
5537 12724 12725 1 109.500 292.880
5537 12724 12726 1 109.500 292.880
5542 5543 5550 1 125.237 669.440
5542 5561 5560 1 125.010 669.440
5542 5561 5562 1 116.164 669.440
5543 5542 5561 1 114.807 334.720
5543 5550 5551 1 114.843 334.720
5544 5543 5550 1 118.788 669.440
5545 6 5 1 109.500 502.080
5550 5551 5560 1 124.986 669.440
5551 5560 5561 1 115.117 334.720
5552 5551 5560 1 118.823 669.440
5564 9131 9130 1 109.500 418.400
5564 9131 9132 1 109.500 292.880
5564 9131 9133 1 109.500 292.880
5569 5570 5578 1 125.237 669.440
5569 5587 5586 1 125.010 669.440
5569 5587 5588 1 116.164 669.440
5570 5569 5587 1 114.807 334.720
5570 5578 5579 1 114.843 334.720
5571 5570 5578 1 118.788 669.440
5573 10341 10340 1 109.500 418.400
5573 10341 10342 1 109.500 292.880
5573 10341 10343 1 109.500 292.880
5578 5579 5586 1 124.986 669.440
5579 5586 5587 1 115.117 334.720
5580 5579 5586 1 118.823 669.440
5581 5278 5277 1 109.500 502.080
5589 934 933 1 109.500 502.080
5594 5595 5602 1 125.237 669.440
5594 5611 5610 1 125.010 669.440
5594 5611 5612 1 116.164 669.440
5595 5594 5611 1 114.807 334.720
5595 5602 5603 1 114.843 334.720
5596 5595 5602 1 118.788 669.440
5597 943 942 1 109.500 502.080
5602 5603 5610 1 124.986 669.440
5603 5610 5611 1 115.117 334.720
5604 5603 5610 1 118.823 669.440
5605 645 644 1 109.500 502.080
5613 4429 4428 1 109.500 502.080
5618 5619 5627 1 125.237 669.440
5618 5637 5636 1 125.010 669.440
5618 5637 5638 1 116.164 669.440
5619 5618 5637 1 114.807 334.720
5619 5627 5628 1 114.843 334.720
5620 5619 5627 1 118.788 669.440
5622 8948 8947 1 109.500 418.400
5622 8948 8949 1 109.500 292.880
5622 8948 8950 1 109.500 292.880
5627 5628 5636 1 124.986 669.440
5628 5636 5637 1 115.117 334.720
5629 5628 5636 1 118.823 669.440
5631 7395 7394 1 109.500 418.400
5631 7395 7396 1 109.500 292.880
5631 7395 7397 1 109.500 292.880
5639 3536 3535 1 109.500 502.080
5644 5645 5653 1 125.237 669.440
5644 5664 5663 1 125.010 669.440
5644 5664 5665 1 116.164 669.440
5645 5644 5664 1 114.807 334.720
5645 5653 5654 1 114.843 334.720
5646 5645 5653 1 118.788 669.440
5648 8777 8776 1 109.500 418.400
5648 8777 8778 1 109.500 292.880
5648 8777 8779 1 109.500 292.880
5653 5654 5663 1 124.986 669.440
5654 5663 5664 1 115.117 334.720
5655 5654 5663 1 118.823 669.440
5666 4307 4306 1 109.500 502.080
5671 5672 5680 1 125.237 669.440
5671 5690 5689 1 125.010 669.440
5671 5690 5691 1 116.164 669.440
5672 5671 5690 1 114.807 334.720
5672 5680 5681 1 114.843 334.720
5673 5672 5680 1 118.788 669.440
5675 12131 12130 1 109.500 418.400
5675 12131 12132 1 109.500 292.880
5675 12131 12133 1 109.500 292.880
5680 5681 5689 1 124.986 669.440
5681 5689 5690 1 115.117 334.720
5682 5681 5689 1 118.823 669.440
5684 10391 10390 1 109.500 418.400
5684 10391 10392 1 109.500 292.880
5684 10391 10393 1 109.500 292.880
5693 6135 6134 1 109.500 418.400
5693 6135 6136 1 109.500 292.880
5693 6135 6137 1 109.500 292.880
5698 5699 5707 1 125.237 669.440
5698 5716 5715 1 125.010 669.440
5698 5716 5717 1 116.164 669.440
5699 5698 5716 1 114.807 334.720
5699 5707 5708 1 114.843 334.720
5700 5699 5707 1 118.788 669.440
5702 12716 12715 1 109.500 418.400
5702 12716 12717 1 109.500 292.880
5702 12716 12718 1 109.500 292.880
5707 5708 5715 1 124.986 669.440
5708 5715 5716 1 115.117 334.720
5709 5708 5715 1 118.823 669.440
5710 1333 1332 1 109.500 502.080
5718 1018 1017 1 109.500 502.080
5723 5724 5733 1 125.237 669.440
5723 5743 5742 1 125.010 669.440
5723 5743 5744 1 116.164 669.440
5724 5723 5743 1 114.807 334.720
5724 5733 5734 1 114.843 334.720
5725 5724 5733 1 118.788 669.440
5733 5734 5742 1 124.986 669.440
5734 5742 5743 1 115.117 334.720
5735 5734 5742 1 118.823 669.440
5737 6738 6737 1 109.500 418.400
5737 6738 6739 1 109.500 292.880
5737 6738 6740 1 109.500 292.880
5746 6746 6745 1 109.500 418.400
5746 6746 6747 1 109.500 292.880
5746 6746 6748 1 109.500 292.880
5751 5752 5760 1 125.237 669.440
5751 5770 5769 1 125.010 669.440
5751 5770 5771 1 116.164 669.440
5752 5751 5770 1 114.807 334.720
5752 5760 5761 1 114.843 334.720
5753 5752 5760 1 118.788 669.440
5755 9656 9655 1 109.500 418.400
5755 9656 9657 1 109.500 292.880
5755 9656 9658 1 109.500 292.880
5760 5761 5769 1 124.986 669.440
5761 5769 5770 1 115.117 334.720
5762 5761 5769 1 118.823 669.440
5764 11360 11359 1 109.500 418.400
5764 11360 11361 1 109.500 292.880
5764 11360 11362 1 109.500 292.880
5773 9049 9048 1 109.500 418.400
5773 9049 9050 1 109.500 292.880
5773 9049 9051 1 109.500 292.880
5778 5779 5787 1 125.237 669.440
5778 5797 5796 1 125.010 669.440
5778 5797 5798 1 116.164 669.440
5779 5778 5797 1 114.807 334.720
5779 5787 5788 1 114.843 334.720
5780 5779 5787 1 118.788 669.440
5782 10994 10993 1 109.500 418.400
5782 10994 10995 1 109.500 292.880
5782 10994 10996 1 109.500 292.880
5787 5788 5796 1 124.986 669.440
5788 5796 5797 1 115.117 334.720
5789 5788 5796 1 118.823 669.440
5791 12179 12178 1 109.500 418.400
5791 12179 12180 1 109.500 292.880
5791 12179 12181 1 109.500 292.880
5799 1863 1862 1 109.500 502.080
5804 5805 5813 1 125.237 669.440
5804 5823 5822 1 125.010 669.440
5804 5823 5824 1 116.164 669.440
5805 5804 5823 1 114.807 334.720
5805 5813 5814 1 114.843 334.720
5806 5805 5813 1 118.788 669.440
5808 10617 10616 1 109.500 418.400
5808 10617 10618 1 109.500 292.880
5808 10617 10619 1 109.500 292.880
5813 5814 5822 1 124.986 669.440
5814 5822 5823 1 115.117 334.720
5815 5814 5822 1 118.823 669.440
5817 6579 6578 1 109.500 418.400
5817 6579 6580 1 109.500 292.880
5817 6579 6581 1 109.500 292.880
5825 3895 3894 1 109.500 502.080
5830 5831 5838 1 125.237 669.440
5830 5847 5846 1 125.010 669.440
5830 5847 5848 1 116.164 669.440
5831 5830 5847 1 114.807 334.720
5831 5838 5839 1 114.843 334.720
5832 5831 5838 1 118.788 669.440
5833 4904 4903 1 109.500 502.080
5838 5839 5846 1 124.986 669.440
5839 5846 5847 1 115.117 334.720
5840 5839 5846 1 118.823 669.440
5841 4143 4142 1 109.500 502.080
5850 6917 6916 1 109.500 418.400
5850 6917 6918 1 109.500 292.880
5850 6917 6919 1 109.500 292.880
5855 5856 5863 1 125.237 669.440
5855 5873 5872 1 125.010 669.440
5855 5873 5874 1 116.164 669.440
5856 5855 5873 1 114.807 334.720
5856 5863 5864 1 114.843 334.720
5857 5856 5863 1 118.788 669.440
5858 3940 3939 1 109.500 502.080
5863 5864 5872 1 124.986 669.440
5864 5872 5873 1 115.117 334.720
5865 5864 5872 1 118.823 669.440
5867 9434 9433 1 109.500 418.400
5867 9434 9435 1 109.500 292.880
5867 9434 9436 1 109.500 292.880
5875 3718 3717 1 109.500 502.080
5880 5881 5889 1 125.237 669.440
5880 5898 5897 1 125.010 669.440
5880 5898 5899 1 116.164 669.440
5881 5880 5898 1 114.807 334.720
5881 5889 5890 1 114.843 334.720
5882 5881 5889 1 118.788 669.440
5884 7245 7244 1 109.500 418.400
5884 7245 7246 1 109.500 292.880
5884 7245 7247 1 109.500 292.880
5889 5890 5897 1 124.986 669.440
5890 5897 5898 1 115.117 334.720
5891 5890 5897 1 118.823 669.440
5892 700 699 1 109.500 502.080
5900 2722 2721 1 109.500 502.080
5905 5906 5914 1 125.237 669.440
5905 5924 5923 1 125.010 669.440
5905 5924 5925 1 116.164 669.440
5906 5905 5924 1 114.807 334.720
5906 5914 5915 1 114.843 334.720
5907 5906 5914 1 118.788 669.440
5909 10260 10259 1 109.500 418.400
5909 10260 10261 1 109.500 292.880
5909 10260 10262 1 109.500 292.880
5914 5915 5923 1 124.986 669.440
5915 5923 5924 1 115.117 334.720
5916 5915 5923 1 118.823 669.440
5918 11626 11625 1 109.500 418.400
5918 11626 11627 1 109.500 292.880
5918 11626 11628 1 109.500 292.880
5927 10317 10316 1 109.500 418.400
5927 10317 10318 1 109.500 292.880
5927 10317 10319 1 109.500 292.880
5932 5933 5940 1 125.237 669.440
5932 5950 5949 1 125.010 669.440
5932 5950 5951 1 116.164 669.440
5933 5932 5950 1 114.807 334.720
5933 5940 5941 1 114.843 334.720
5934 5933 5940 1 118.788 669.440
5935 1190 1189 1 109.500 502.080
5940 5941 5949 1 124.986 669.440
5941 5949 5950 1 115.117 334.720
5942 5941 5949 1 118.823 669.440
5944 6993 6992 1 109.500 418.400
5944 6993 6994 1 109.500 292.880
5944 6993 6995 1 109.500 292.880
5952 1054 1053 1 109.500 502.080
5957 5958 5966 1 125.237 669.440
5957 5975 5974 1 125.010 669.440
5957 5975 5976 1 116.164 669.440
5958 5957 5975 1 114.807 334.720
5958 5966 5967 1 114.843 334.720
5959 5958 5966 1 118.788 669.440
5961 6253 6252 1 109.500 418.400
5961 6253 6254 1 109.500 292.880
5961 6253 6255 1 109.500 292.880
5966 5967 5974 1 124.986 669.440
5967 5974 5975 1 115.117 334.720
5968 5967 5974 1 118.823 669.440
5969 4350 4349 1 109.500 502.080
5978 10349 10348 1 109.500 418.400
5978 10349 10350 1 109.500 292.880
5978 10349 10351 1 109.500 292.880
5983 5984 5992 1 125.237 669.440
5983 6002 6001 1 125.010 669.440
5983 6002 6003 1 116.164 669.440
5984 5983 6002 1 114.807 334.720
5984 5992 5993 1 114.843 334.720
5985 5984 5992 1 118.788 669.440
5987 7840 7839 1 109.500 418.400
5987 7840 7841 1 109.500 292.880
5987 7840 7842 1 109.500 292.880
5992 5993 6001 1 124.986 669.440
5993 6001 6002 1 115.117 334.720
5994 5993 6001 1 118.823 669.440
5996 8439 8438 1 109.500 418.400
5996 8439 8440 1 109.500 292.880
5996 8439 8441 1 109.500 292.880
6004 5145 5144 1 109.500 502.080
6009 6010 6019 1 125.237 669.440
6009 6028 6027 1 125.010 669.440
6009 6028 6029 1 116.164 669.440
6010 6009 6028 1 114.807 334.720
6010 6019 6020 1 114.843 334.720
6011 6010 6019 1 118.788 669.440
6019 6020 6027 1 124.986 669.440
6020 6027 6028 1 115.117 334.720
6021 6020 6027 1 118.823 669.440
6022 2660 2659 1 109.500 502.080
6030 2032 2031 1 109.500 502.080
6035 6036 6043 1 125.237 669.440
6035 6053 6052 1 125.010 669.440
6035 6053 6054 1 116.164 669.440
6036 6035 6053 1 114.807 334.720
6036 6043 6044 1 114.843 334.720
6037 6036 6043 1 118.788 669.440
6038 2598 2597 1 109.500 502.080
6043 6044 6052 1 124.986 669.440
6044 6052 6053 1 115.117 334.720
6045 6044 6052 1 118.823 669.440
6047 7411 7410 1 109.500 418.400
6047 7411 7412 1 109.500 292.880
6047 7411 7413 1 109.500 292.880
6062 6063 6070 1 125.237 669.440
6062 6080 6079 1 125.010 669.440
6062 6080 6081 1 116.164 669.440
6063 6062 6080 1 114.807 334.720
6063 6070 6071 1 114.843 334.720
6064 6063 6070 1 118.788 669.440
6065 382 381 1 109.500 502.080
6070 6071 6079 1 124.986 669.440
6071 6079 6080 1 115.117 334.720
6072 6071 6079 1 118.823 669.440
6074 6842 6841 1 109.500 418.400
6074 6842 6843 1 109.500 292.880
6074 6842 6844 1 109.500 292.880
6083 11457 11456 1 109.500 418.400
6083 11457 11458 1 109.500 292.880
6083 11457 11459 1 109.500 292.880
6088 6089 6097 1 125.237 669.440
6088 6107 6106 1 125.010 669.440
6088 6107 6108 1 116.164 669.440
6089 6088 6107 1 114.807 334.720
6089 6097 6098 1 114.843 334.720
6090 6089 6097 1 118.788 669.440
6092 8083 8082 1 109.500 418.400
6092 8083 8084 1 109.500 292.880
6092 8083 8085 1 109.500 292.880
6097 6098 6106 1 124.986 669.440
6098 6106 6107 1 115.117 334.720
6099 6098 6106 1 118.823 669.440
6101 11417 11416 1 109.500 418.400
6101 11417 11418 1 109.500 292.880
6101 11417 11419 1 109.500 292.880
6109 3683 3682 1 109.500 502.080
6114 6115 6123 1 125.237 669.440
6114 6133 6132 1 125.010 669.440
6114 6133 6134 1 116.164 669.440
6115 6114 6133 1 114.807 334.720
6115 6123 6124 1 114.843 334.720
6116 6115 6123 1 118.788 669.440
6118 10409 10408 1 109.500 418.400
6118 10409 10410 1 109.500 292.880
6118 10409 10411 1 109.500 292.880
6123 6124 6132 1 124.986 669.440
6124 6132 6133 1 115.117 334.720
6125 6124 6132 1 118.823 669.440
6127 12123 12122 1 109.500 418.400
6127 12123 12124 1 109.500 292.880
6127 12123 12125 1 109.500 292.880
6135 5693 5692 1 109.500 502.080
6140 6141 6149 1 125.237 669.440
6140 6159 6158 1 125.010 669.440
6140 6159 6160 1 116.164 669.440
6141 6140 6159 1 114.807 334.720
6141 6149 6150 1 114.843 334.720
6142 6141 6149 1 118.788 669.440
6144 12642 12641 1 109.500 418.400
6144 12642 12643 1 109.500 292.880
6144 12642 12644 1 109.500 292.880
6149 6150 6158 1 124.986 669.440
6150 6158 6159 1 115.117 334.720
6151 6150 6158 1 118.823 669.440
6153 10151 10150 1 109.500 418.400
6153 10151 10152 1 109.500 292.880
6153 10151 10153 1 109.500 292.880
6162 9176 9175 1 109.500 418.400
6162 9176 9177 1 109.500 292.880
6162 9176 9178 1 109.500 292.880
6167 6168 6177 1 125.237 669.440
6167 6187 6186 1 125.010 669.440
6167 6187 6188 1 116.164 669.440
6168 6167 6187 1 114.807 334.720
6168 6177 6178 1 114.843 334.720
6169 6168 6177 1 118.788 669.440
6177 6178 6186 1 124.986 669.440
6178 6186 6187 1 115.117 334.720
6179 6178 6186 1 118.823 669.440
6181 8362 8361 1 109.500 418.400
6181 8362 8363 1 109.500 292.880
6181 8362 8364 1 109.500 292.880
6190 8288 8287 1 109.500 418.400
6190 8288 8289 1 109.500 292.880
6190 8288 8290 1 109.500 292.880
6195 6196 6203 1 125.237 669.440
6195 6213 6212 1 125.010 669.440
6195 6213 6214 1 116.164 669.440
6196 6195 6213 1 114.807 334.720
6196 6203 6204 1 114.843 334.720
6197 6196 6203 1 118.788 669.440
6198 4990 4989 1 109.500 502.080
6203 6204 6212 1 124.986 669.440
6204 6212 6213 1 115.117 334.720
6205 6204 6212 1 118.823 669.440
6207 9359 9358 1 109.500 418.400
6207 9359 9360 1 109.500 292.880
6207 9359 9361 1 109.500 292.880
6216 11084 11083 1 109.500 418.400
6216 11084 11085 1 109.500 292.880
6216 11084 11086 1 109.500 292.880
6221 6222 6231 1 125.237 669.440
6221 6241 6240 1 125.010 669.440
6221 6241 6242 1 116.164 669.440
6222 6221 6241 1 114.807 334.720
6222 6231 6232 1 114.843 334.720
6223 6222 6231 1 118.788 669.440
6231 6232 6240 1 124.986 669.440
6232 6240 6241 1 115.117 334.720
6233 6232 6240 1 118.823 669.440
6235 10541 10540 1 109.500 418.400
6235 10541 10542 1 109.500 292.880
6235 10541 10543 1 109.500 292.880
6250 6251 6258 1 125.237 669.440
6250 6269 6268 1 125.010 669.440
6250 6269 6270 1 116.164 669.440
6251 6250 6269 1 114.807 334.720
6251 6258 6259 1 114.843 334.720
6252 6251 6258 1 118.788 669.440
6253 5961 5960 1 109.500 502.080
6258 6259 6268 1 124.986 669.440
6259 6268 6269 1 115.117 334.720
6260 6259 6268 1 118.823 669.440
6272 11158 11157 1 109.500 418.400
6272 11158 11159 1 109.500 292.880
6272 11158 11160 1 109.500 292.880
6277 6278 6285 1 125.237 669.440
6277 6295 6294 1 125.010 669.440
6277 6295 6296 1 116.164 669.440
6278 6277 6295 1 114.807 334.720
6278 6285 6286 1 114.843 334.720
6279 6278 6285 1 118.788 669.440
6280 4929 4928 1 109.500 502.080
6285 6286 6294 1 124.986 669.440
6286 6294 6295 1 115.117 334.720
6287 6286 6294 1 118.823 669.440
6289 11584 11583 1 109.500 418.400
6289 11584 11585 1 109.500 292.880
6289 11584 11586 1 109.500 292.880
6297 3527 3526 1 109.500 502.080
6302 6303 6312 1 125.237 669.440
6302 6322 6321 1 125.010 669.440
6302 6322 6323 1 116.164 669.440
6303 6302 6322 1 114.807 334.720
6303 6312 6313 1 114.843 334.720
6304 6303 6312 1 118.788 669.440
6312 6313 6321 1 124.986 669.440
6313 6321 6322 1 115.117 334.720
6314 6313 6321 1 118.823 669.440
6316 8346 8345 1 109.500 418.400
6316 8346 8347 1 109.500 292.880
6316 8346 8348 1 109.500 292.880
6331 6332 6341 1 125.237 669.440
6331 6351 6350 1 125.010 669.440
6331 6351 6352 1 116.164 669.440
6332 6331 6351 1 114.807 334.720
6332 6341 6342 1 114.843 334.720
6333 6332 6341 1 118.788 669.440
6341 6342 6350 1 124.986 669.440
6342 6350 6351 1 115.117 334.720
6343 6342 6350 1 118.823 669.440
6345 11433 11432 1 109.500 418.400
6345 11433 11434 1 109.500 292.880
6345 11433 11435 1 109.500 292.880
6354 10078 10077 1 109.500 418.400
6354 10078 10079 1 109.500 292.880
6354 10078 10080 1 109.500 292.880
6359 6360 6367 1 125.237 669.440
6359 6376 6375 1 125.010 669.440
6359 6376 6377 1 116.164 669.440
6360 6359 6376 1 114.807 334.720
6360 6367 6368 1 114.843 334.720
6361 6360 6367 1 118.788 669.440
6362 3474 3473 1 109.500 502.080
6367 6368 6375 1 124.986 669.440
6368 6375 6376 1 115.117 334.720
6369 6368 6375 1 118.823 669.440
6370 1306 1305 1 109.500 502.080
6379 9527 9526 1 109.500 418.400
6379 9527 9528 1 109.500 292.880
6379 9527 9529 1 109.500 292.880
6384 6385 6394 1 125.237 669.440
6384 6404 6403 1 125.010 669.440
6384 6404 6405 1 116.164 669.440
6385 6384 6404 1 114.807 334.720
6385 6394 6395 1 114.843 334.720
6386 6385 6394 1 118.788 669.440
6394 6395 6403 1 124.986 669.440
6395 6403 6404 1 115.117 334.720
6396 6395 6403 1 118.823 669.440
6398 11320 11319 1 109.500 418.400
6398 11320 11321 1 109.500 292.880
6398 11320 11322 1 109.500 292.880
6406 5171 5170 1 109.500 502.080
6411 6412 6419 1 125.237 669.440
6411 6429 6428 1 125.010 669.440
6411 6429 6430 1 116.164 669.440
6412 6411 6429 1 114.807 334.720
6412 6419 6420 1 114.843 334.720
6413 6412 6419 1 118.788 669.440
6414 4585 4584 1 109.500 502.080
6419 6420 6428 1 124.986 669.440
6420 6428 6429 1 115.117 334.720
6421 6420 6428 1 118.823 669.440
6423 7686 7685 1 109.500 418.400
6423 7686 7687 1 109.500 292.880
6423 7686 7688 1 109.500 292.880
6432 12932 12931 1 109.500 418.400
6432 12932 12933 1 109.500 292.880
6432 12932 12934 1 109.500 292.880
6437 6438 6445 1 125.237 669.440
6437 6454 6453 1 125.010 669.440
6437 6454 6455 1 116.164 669.440
6438 6437 6454 1 114.807 334.720
6438 6445 6446 1 114.843 334.720
6439 6438 6445 1 118.788 669.440
6440 235 234 1 109.500 502.080
6445 6446 6453 1 124.986 669.440
6446 6453 6454 1 115.117 334.720
6447 6446 6453 1 118.823 669.440
6448 4038 4037 1 109.500 502.080
6457 9995 9994 1 109.500 418.400
6457 9995 9996 1 109.500 292.880
6457 9995 9997 1 109.500 292.880
6462 6463 6472 1 125.237 669.440
6462 6483 6482 1 125.010 669.440
6462 6483 6484 1 116.164 669.440
6463 6462 6483 1 114.807 334.720
6463 6472 6473 1 114.843 334.720
6464 6463 6472 1 118.788 669.440
6472 6473 6482 1 124.986 669.440
6473 6482 6483 1 115.117 334.720
6474 6473 6482 1 118.823 669.440
6486 11650 11649 1 109.500 418.400
6486 11650 11651 1 109.500 292.880
6486 11650 11652 1 109.500 292.880
6491 6492 6499 1 125.237 669.440
6491 6509 6508 1 125.010 669.440
6491 6509 6510 1 116.164 669.440
6492 6491 6509 1 114.807 334.720
6492 6499 6500 1 114.843 334.720
6493 6492 6499 1 118.788 669.440
6494 4187 4186 1 109.500 502.080
6499 6500 6508 1 124.986 669.440
6500 6508 6509 1 115.117 334.720
6501 6500 6508 1 118.823 669.440
6503 10760 10759 1 109.500 418.400
6503 10760 10761 1 109.500 292.880
6503 10760 10762 1 109.500 292.880
6512 10577 10576 1 109.500 418.400
6512 10577 10578 1 109.500 292.880
6512 10577 10579 1 109.500 292.880
6517 6518 6525 1 125.237 669.440
6517 6534 6533 1 125.010 669.440
6517 6534 6535 1 116.164 669.440
6518 6517 6534 1 114.807 334.720
6518 6525 6526 1 114.843 334.720
6519 6518 6525 1 118.788 669.440
6520 599 598 1 109.500 502.080
6525 6526 6533 1 124.986 669.440
6526 6533 6534 1 115.117 334.720
6527 6526 6533 1 118.823 669.440
6528 791 790 1 109.500 502.080
6537 8314 8313 1 109.500 418.400
6537 8314 8315 1 109.500 292.880
6537 8314 8316 1 109.500 292.880
6542 6543 6550 1 125.237 669.440
6542 6559 6558 1 125.010 669.440
6542 6559 6560 1 116.164 669.440
6543 6542 6559 1 114.807 334.720
6543 6550 6551 1 114.843 334.720
6544 6543 6550 1 118.788 669.440
6545 4243 4242 1 109.500 502.080
6550 6551 6558 1 124.986 669.440
6551 6558 6559 1 115.117 334.720
6552 6551 6558 1 118.823 669.440
6553 3300 3299 1 109.500 502.080
6562 12544 12543 1 109.500 418.400
6562 12544 12545 1 109.500 292.880
6562 12544 12546 1 109.500 292.880
6567 6568 6576 1 125.237 669.440
6567 6585 6584 1 125.010 669.440
6567 6585 6586 1 116.164 669.440
6568 6567 6585 1 114.807 334.720
6568 6576 6577 1 114.843 334.720
6569 6568 6576 1 118.788 669.440
6571 11658 11657 1 109.500 418.400
6571 11658 11659 1 109.500 292.880
6571 11658 11660 1 109.500 292.880
6576 6577 6584 1 124.986 669.440
6577 6584 6585 1 115.117 334.720
6578 6577 6584 1 118.823 669.440
6579 5817 5816 1 109.500 502.080
6587 1754 1753 1 109.500 502.080
6592 6593 6601 1 125.237 669.440
6592 6610 6609 1 125.010 669.440
6592 6610 6611 1 116.164 669.440
6593 6592 6610 1 114.807 334.720
6593 6601 6602 1 114.843 334.720
6594 6593 6601 1 118.788 669.440
6596 10609 10608 1 109.500 418.400
6596 10609 10610 1 109.500 292.880
6596 10609 10611 1 109.500 292.880
6601 6602 6609 1 124.986 669.440
6602 6609 6610 1 115.117 334.720
6603 6602 6609 1 118.823 669.440
6604 4117 4116 1 109.500 502.080
6612 2748 2747 1 109.500 502.080
6617 6618 6625 1 125.237 669.440
6617 6635 6634 1 125.010 669.440
6617 6635 6636 1 116.164 669.440
6618 6617 6635 1 114.807 334.720
6618 6625 6626 1 114.843 334.720
6619 6618 6625 1 118.788 669.440
6620 2400 2399 1 109.500 502.080
6625 6626 6634 1 124.986 669.440
6626 6634 6635 1 115.117 334.720
6627 6626 6634 1 118.823 669.440
6629 6661 6660 1 109.500 418.400
6629 6661 6662 1 109.500 292.880
6629 6661 6663 1 109.500 292.880
6637 2913 2912 1 109.500 502.080
6642 6643 6650 1 125.237 669.440
6642 6659 6658 1 125.010 669.440
6642 6659 6660 1 116.164 669.440
6643 6642 6659 1 114.807 334.720
6643 6650 6651 1 114.843 334.720
6644 6643 6650 1 118.788 669.440
6645 3563 3562 1 109.500 502.080
6650 6651 6658 1 124.986 669.440
6651 6658 6659 1 115.117 334.720
6652 6651 6658 1 118.823 669.440
6653 2896 2895 1 109.500 502.080
6661 6629 6628 1 109.500 502.080
6666 6667 6674 1 125.237 669.440
6666 6683 6682 1 125.010 669.440
6666 6683 6684 1 116.164 669.440
6667 6666 6683 1 114.807 334.720
6667 6674 6675 1 114.843 334.720
6668 6667 6674 1 118.788 669.440
6669 3419 3418 1 109.500 502.080
6674 6675 6682 1 124.986 669.440
6675 6682 6683 1 115.117 334.720
6676 6675 6682 1 118.823 669.440
6677 2146 2145 1 109.500 502.080
6686 12298 12297 1 109.500 418.400
6686 12298 12299 1 109.500 292.880
6686 12298 12300 1 109.500 292.880
6691 6692 6700 1 125.237 669.440
6691 6710 6709 1 125.010 669.440
6691 6710 6711 1 116.164 669.440
6692 6691 6710 1 114.807 334.720
6692 6700 6701 1 114.843 334.720
6693 6692 6700 1 118.788 669.440
6695 8473 8472 1 109.500 418.400
6695 8473 8474 1 109.500 292.880
6695 8473 8475 1 109.500 292.880
6700 6701 6709 1 124.986 669.440
6701 6709 6710 1 115.117 334.720
6702 6701 6709 1 118.823 669.440
6704 10061 10060 1 109.500 418.400
6704 10061 10062 1 109.500 292.880
6704 10061 10063 1 109.500 292.880
6712 5188 5187 1 109.500 502.080
6717 6718 6726 1 125.237 669.440
6717 6736 6735 1 125.010 669.440
6717 6736 6737 1 116.164 669.440
6718 6717 6736 1 114.807 334.720
6718 6726 6727 1 114.843 334.720
6719 6718 6726 1 118.788 669.440
6721 11465 11464 1 109.500 418.400
6721 11465 11466 1 109.500 292.880
6721 11465 11467 1 109.500 292.880
6726 6727 6735 1 124.986 669.440
6727 6735 6736 1 115.117 334.720
6728 6727 6735 1 118.823 669.440
6730 8666 8665 1 109.500 418.400
6730 8666 8667 1 109.500 292.880
6730 8666 8668 1 109.500 292.880
6738 5737 5736 1 109.500 502.080
6743 6744 6751 1 125.237 669.440
6743 6761 6760 1 125.010 669.440
6743 6761 6762 1 116.164 669.440
6744 6743 6761 1 114.807 334.720
6744 6751 6752 1 114.843 334.720
6745 6744 6751 1 118.788 669.440
6746 5746 5745 1 109.500 502.080
6751 6752 6760 1 124.986 669.440
6752 6760 6761 1 115.117 334.720
6753 6752 6760 1 118.823 669.440
6755 6858 6857 1 109.500 418.400
6755 6858 6859 1 109.500 292.880
6755 6858 6860 1 109.500 292.880
6764 8691 8690 1 109.500 418.400
6764 8691 8692 1 109.500 292.880
6764 8691 8693 1 109.500 292.880
6769 6770 6778 1 125.237 669.440
6769 6787 6786 1 125.010 669.440
6769 6787 6788 1 116.164 669.440
6770 6769 6787 1 114.807 334.720
6770 6778 6779 1 114.843 334.720
6771 6770 6778 1 118.788 669.440
6773 9089 9088 1 109.500 418.400
6773 9089 9090 1 109.500 292.880
6773 9089 9091 1 109.500 292.880
6778 6779 6786 1 124.986 669.440
6779 6786 6787 1 115.117 334.720
6780 6779 6786 1 118.823 669.440
6781 2077 2076 1 109.500 502.080
6789 817 816 1 109.500 502.080
6794 6795 6803 1 125.237 669.440
6794 6813 6812 1 125.010 669.440
6794 6813 6814 1 116.164 669.440
6795 6794 6813 1 114.807 334.720
6795 6803 6804 1 114.843 334.720
6796 6795 6803 1 118.788 669.440
6798 11634 11633 1 109.500 418.400
6798 11634 11635 1 109.500 292.880
6798 11634 11636 1 109.500 292.880
6803 6804 6812 1 124.986 669.440
6804 6812 6813 1 115.117 334.720
6805 6804 6812 1 118.823 669.440
6807 7601 7600 1 109.500 418.400
6807 7601 7602 1 109.500 292.880
6807 7601 7603 1 109.500 292.880
6815 735 734 1 109.500 502.080
6820 6821 6829 1 125.237 669.440
6820 6840 6839 1 125.010 669.440
6820 6840 6841 1 116.164 669.440
6821 6820 6840 1 114.807 334.720
6821 6829 6830 1 114.843 334.720
6822 6821 6829 1 118.788 669.440
6824 11076 11075 1 109.500 418.400
6824 11076 11077 1 109.500 292.880
6824 11076 11078 1 109.500 292.880
6829 6830 6839 1 124.986 669.440
6830 6839 6840 1 115.117 334.720
6831 6830 6839 1 118.823 669.440
6842 6074 6073 1 109.500 502.080
6847 6848 6855 1 125.237 669.440
6847 6864 6863 1 125.010 669.440
6847 6864 6865 1 116.164 669.440
6848 6847 6864 1 114.807 334.720
6848 6855 6856 1 114.843 334.720
6849 6848 6855 1 118.788 669.440
6850 4886 4885 1 109.500 502.080
6855 6856 6863 1 124.986 669.440
6856 6863 6864 1 115.117 334.720
6857 6856 6863 1 118.823 669.440
6858 6755 6754 1 109.500 502.080
6866 3183 3182 1 109.500 502.080
6871 6872 6880 1 125.237 669.440
6871 6890 6889 1 125.010 669.440
6871 6890 6891 1 116.164 669.440
6872 6871 6890 1 114.807 334.720
6872 6880 6881 1 114.843 334.720
6873 6872 6880 1 118.788 669.440
6875 8658 8657 1 109.500 418.400
6875 8658 8659 1 109.500 292.880
6875 8658 8660 1 109.500 292.880
6880 6881 6889 1 124.986 669.440
6881 6889 6890 1 115.117 334.720
6882 6881 6889 1 118.823 669.440
6884 7866 7865 1 109.500 418.400
6884 7866 7867 1 109.500 292.880
6884 7866 7868 1 109.500 292.880
6893 9888 9887 1 109.500 418.400
6893 9888 9889 1 109.500 292.880
6893 9888 9890 1 109.500 292.880
6898 6899 6906 1 125.237 669.440
6898 6915 6914 1 125.010 669.440
6898 6915 6916 1 116.164 669.440
6899 6898 6915 1 114.807 334.720
6899 6906 6907 1 114.843 334.720
6900 6899 6906 1 118.788 669.440
6901 4895 4894 1 109.500 502.080
6906 6907 6914 1 124.986 669.440
6907 6914 6915 1 115.117 334.720
6908 6907 6914 1 118.823 669.440
6909 2525 2524 1 109.500 502.080
6917 5850 5849 1 109.500 502.080
6922 6923 6931 1 125.237 669.440
6922 6940 6939 1 125.010 669.440
6922 6940 6941 1 116.164 669.440
6923 6922 6940 1 114.807 334.720
6923 6931 6932 1 114.843 334.720
6924 6923 6931 1 118.788 669.440
6926 8583 8582 1 109.500 418.400
6926 8583 8584 1 109.500 292.880
6926 8583 8585 1 109.500 292.880
6931 6932 6939 1 124.986 669.440
6932 6939 6940 1 115.117 334.720
6933 6932 6939 1 118.823 669.440
6934 3428 3427 1 109.500 502.080
6943 8725 8724 1 109.500 418.400
6943 8725 8726 1 109.500 292.880
6943 8725 8727 1 109.500 292.880
6948 6949 6957 1 125.237 669.440
6948 6966 6965 1 125.010 669.440
6948 6966 6967 1 116.164 669.440
6949 6948 6966 1 114.807 334.720
6949 6957 6958 1 114.843 334.720
6950 6949 6957 1 118.788 669.440
6952 8338 8337 1 109.500 418.400
6952 8338 8339 1 109.500 292.880
6952 8338 8340 1 109.500 292.880
6957 6958 6965 1 124.986 669.440
6958 6965 6966 1 115.117 334.720
6959 6958 6965 1 118.823 669.440
6960 2811 2810 1 109.500 502.080
6968 5088 5087 1 109.500 502.080
6973 6974 6982 1 125.237 669.440
6973 6991 6990 1 125.010 669.440
6973 6991 6992 1 116.164 669.440
6974 6973 6991 1 114.807 334.720
6974 6982 6983 1 114.843 334.720
6975 6974 6982 1 118.788 669.440
6977 10736 10735 1 109.500 418.400
6977 10736 10737 1 109.500 292.880
6977 10736 10738 1 109.500 292.880
6982 6983 6990 1 124.986 669.440
6983 6990 6991 1 115.117 334.720
6984 6983 6990 1 118.823 669.440
6985 4064 4063 1 109.500 502.080
6993 5944 5943 1 109.500 502.080
6998 6999 7007 1 125.237 669.440
6998 7018 7017 1 125.010 669.440
6998 7018 7019 1 116.164 669.440
6999 6998 7018 1 114.807 334.720
6999 7007 7008 1 114.843 334.720
7000 6999 7007 1 118.788 669.440
7002 10333 10332 1 109.500 418.400
7002 10333 10334 1 109.500 292.880
7002 10333 10335 1 109.500 292.880
7007 7008 7017 1 124.986 669.440
7008 7017 7018 1 115.117 334.720
7009 7008 7017 1 118.823 669.440
7021 12346 12345 1 109.500 418.400
7021 12346 12347 1 109.500 292.880
7021 12346 12348 1 109.500 292.880
7026 7027 7035 1 125.237 669.440
7026 7045 7044 1 125.010 669.440
7026 7045 7046 1 116.164 669.440
7027 7026 7045 1 114.807 334.720
7027 7035 7036 1 114.843 334.720
7028 7027 7035 1 118.788 669.440
7030 8794 8793 1 109.500 418.400
7030 8794 8795 1 109.500 292.880
7030 8794 8796 1 109.500 292.880
7035 7036 7044 1 124.986 669.440
7036 7044 7045 1 115.117 334.720
7037 7036 7044 1 118.823 669.440
7039 11618 11617 1 109.500 418.400
7039 11618 11619 1 109.500 292.880
7039 11618 11620 1 109.500 292.880
7054 7055 7062 1 125.237 669.440
7054 7071 7070 1 125.010 669.440
7054 7071 7072 1 116.164 669.440
7055 7054 7071 1 114.807 334.720
7055 7062 7063 1 114.843 334.720
7056 7055 7062 1 118.788 669.440
7057 1225 1224 1 109.500 502.080
7062 7063 7070 1 124.986 669.440
7063 7070 7071 1 115.117 334.720
7064 7063 7070 1 118.823 669.440
7065 482 481 1 109.500 502.080
7073 1658 1657 1 109.500 502.080
7078 7079 7086 1 125.237 669.440
7078 7097 7096 1 125.010 669.440
7078 7097 7098 1 116.164 669.440
7079 7078 7097 1 114.807 334.720
7079 7086 7087 1 114.843 334.720
7080 7079 7086 1 118.788 669.440
7081 4877 4876 1 109.500 502.080
7086 7087 7096 1 124.986 669.440
7087 7096 7097 1 115.117 334.720
7088 7087 7096 1 118.823 669.440
7100 10986 10985 1 109.500 418.400
7100 10986 10987 1 109.500 292.880
7100 10986 10988 1 109.500 292.880
7105 7106 7114 1 125.237 669.440
7105 7123 7122 1 125.010 669.440
7105 7123 7124 1 116.164 669.440
7106 7105 7123 1 114.807 334.720
7106 7114 7115 1 114.843 334.720
7107 7106 7114 1 118.788 669.440
7109 10744 10743 1 109.500 418.400
7109 10744 10745 1 109.500 292.880
7109 10744 10746 1 109.500 292.880
7114 7115 7122 1 124.986 669.440
7115 7122 7123 1 115.117 334.720
7116 7115 7122 1 118.823 669.440
7117 4736 4735 1 109.500 502.080
7126 11296 11295 1 109.500 418.400
7126 11296 11297 1 109.500 292.880
7126 11296 11298 1 109.500 292.880
7131 7132 7139 1 125.237 669.440
7131 7148 7147 1 125.010 669.440
7131 7148 7149 1 116.164 669.440
7132 7131 7148 1 114.807 334.720
7132 7139 7140 1 114.843 334.720
7133 7132 7139 1 118.788 669.440
7134 3455 3454 1 109.500 502.080
7139 7140 7147 1 124.986 669.440
7140 7147 7148 1 115.117 334.720
7141 7140 7147 1 118.823 669.440
7142 4773 4772 1 109.500 502.080
7150 2283 2282 1 109.500 502.080
7155 7156 7164 1 125.237 669.440
7155 7174 7173 1 125.010 669.440
7155 7174 7175 1 116.164 669.440
7156 7155 7174 1 114.807 334.720
7156 7164 7165 1 114.843 334.720
7157 7156 7164 1 118.788 669.440
7159 12634 12633 1 109.500 418.400
7159 12634 12635 1 109.500 292.880
7159 12634 12636 1 109.500 292.880
7164 7165 7173 1 124.986 669.440
7165 7173 7174 1 115.117 334.720
7166 7165 7173 1 118.823 669.440
7168 12780 12779 1 109.500 418.400
7168 12780 12781 1 109.500 292.880
7168 12780 12782 1 109.500 292.880
7177 7933 7932 1 109.500 418.400
7177 7933 7934 1 109.500 292.880
7177 7933 7935 1 109.500 292.880
7182 7183 7192 1 125.237 669.440
7182 7201 7200 1 125.010 669.440
7182 7201 7202 1 116.164 669.440
7183 7182 7201 1 114.807 334.720
7183 7192 7193 1 114.843 334.720
7184 7183 7192 1 118.788 669.440
7192 7193 7200 1 124.986 669.440
7193 7200 7201 1 115.117 334.720
7194 7193 7200 1 118.823 669.440
7195 5528 5527 1 109.500 502.080
7203 1612 1611 1 109.500 502.080
7208 7209 7216 1 125.237 669.440
7208 7226 7225 1 125.010 669.440
7208 7226 7227 1 116.164 669.440
7209 7208 7226 1 114.807 334.720
7209 7216 7217 1 114.843 334.720
7210 7209 7216 1 118.788 669.440
7211 4938 4937 1 109.500 502.080
7216 7217 7225 1 124.986 669.440
7217 7225 7226 1 115.117 334.720
7218 7217 7225 1 118.823 669.440
7220 10127 10126 1 109.500 418.400
7220 10127 10128 1 109.500 292.880
7220 10127 10129 1 109.500 292.880
7229 10659 10658 1 109.500 418.400
7229 10659 10660 1 109.500 292.880
7229 10659 10661 1 109.500 292.880
7234 7235 7242 1 125.237 669.440
7234 7251 7250 1 125.010 669.440
7234 7251 7252 1 116.164 669.440
7235 7234 7251 1 114.807 334.720
7235 7242 7243 1 114.843 334.720
7236 7235 7242 1 118.788 669.440
7237 4411 4410 1 109.500 502.080
7242 7243 7250 1 124.986 669.440
7243 7250 7251 1 115.117 334.720
7244 7243 7250 1 118.823 669.440
7245 5884 5883 1 109.500 502.080
7260 7261 7268 1 125.237 669.440
7260 7277 7276 1 125.010 669.440
7260 7277 7278 1 116.164 669.440
7261 7260 7277 1 114.807 334.720
7261 7268 7269 1 114.843 334.720
7262 7261 7268 1 118.788 669.440
7263 1996 1995 1 109.500 502.080
7268 7269 7276 1 124.986 669.440
7269 7276 7277 1 115.117 334.720
7270 7269 7276 1 118.823 669.440
7271 299 298 1 109.500 502.080
7280 11499 11498 1 109.500 418.400
7280 11499 11500 1 109.500 292.880
7280 11499 11501 1 109.500 292.880
7285 7286 7293 1 125.237 669.440
7285 7304 7303 1 125.010 669.440
7285 7304 7305 1 116.164 669.440
7286 7285 7304 1 114.807 334.720
7286 7293 7294 1 114.843 334.720
7287 7286 7293 1 118.788 669.440
7288 3061 3060 1 109.500 502.080
7293 7294 7303 1 124.986 669.440
7294 7303 7304 1 115.117 334.720
7295 7294 7303 1 118.823 669.440
7307 9016 9015 1 109.500 418.400
7307 9016 9017 1 109.500 292.880
7307 9016 9018 1 109.500 292.880
7312 7313 7321 1 125.237 669.440
7312 7331 7330 1 125.010 669.440
7312 7331 7332 1 116.164 669.440
7313 7312 7331 1 114.807 334.720
7313 7321 7322 1 114.843 334.720
7314 7313 7321 1 118.788 669.440
7316 8515 8514 1 109.500 418.400
7316 8515 8516 1 109.500 292.880
7316 8515 8517 1 109.500 292.880
7321 7322 7330 1 124.986 669.440
7322 7330 7331 1 115.117 334.720
7323 7322 7330 1 118.823 669.440
7325 8836 8835 1 109.500 418.400
7325 8836 8837 1 109.500 292.880
7325 8836 8838 1 109.500 292.880
7340 7341 7348 1 125.237 669.440
7340 7357 7356 1 125.010 669.440
7340 7357 7358 1 116.164 669.440
7341 7340 7357 1 114.807 334.720
7341 7348 7349 1 114.843 334.720
7342 7341 7348 1 118.788 669.440
7343 2985 2984 1 109.500 502.080
7348 7349 7356 1 124.986 669.440
7349 7356 7357 1 115.117 334.720
7350 7349 7356 1 118.823 669.440
7351 4126 4125 1 109.500 502.080
7359 2922 2921 1 109.500 502.080
7364 7365 7373 1 125.237 669.440
7364 7384 7383 1 125.010 669.440
7364 7384 7385 1 116.164 669.440
7365 7364 7384 1 114.807 334.720
7365 7373 7374 1 114.843 334.720
7366 7365 7373 1 118.788 669.440
7368 12666 12665 1 109.500 418.400
7368 12666 12667 1 109.500 292.880
7368 12666 12668 1 109.500 292.880
7373 7374 7383 1 124.986 669.440
7374 7383 7384 1 115.117 334.720
7375 7374 7383 1 118.823 669.440
7387 11999 11998 1 109.500 418.400
7387 11999 12000 1 109.500 292.880
7387 11999 12001 1 109.500 292.880
7392 7393 7400 1 125.237 669.440
7392 7409 7408 1 125.010 669.440
7392 7409 7410 1 116.164 669.440
7393 7392 7409 1 114.807 334.720
7393 7400 7401 1 114.843 334.720
7394 7393 7400 1 118.788 669.440
7395 5631 5630 1 109.500 502.080
7400 7401 7408 1 124.986 669.440
7401 7408 7409 1 115.117 334.720
7402 7401 7408 1 118.823 669.440
7403 5136 5135 1 109.500 502.080
7411 6047 6046 1 109.500 502.080
7416 7417 7424 1 125.237 669.440
7416 7433 7432 1 125.010 669.440
7416 7433 7434 1 116.164 669.440
7417 7416 7433 1 114.807 334.720
7417 7424 7425 1 114.843 334.720
7418 7417 7424 1 118.788 669.440
7419 5459 5458 1 109.500 502.080
7424 7425 7432 1 124.986 669.440
7425 7432 7433 1 115.117 334.720
7426 7425 7432 1 118.823 669.440
7427 2863 2862 1 109.500 502.080
7435 4851 4850 1 109.500 502.080
7440 7441 7448 1 125.237 669.440
7440 7458 7457 1 125.010 669.440
7440 7458 7459 1 116.164 669.440
7441 7440 7458 1 114.807 334.720
7441 7448 7449 1 114.843 334.720
7442 7441 7448 1 118.788 669.440
7443 4474 4473 1 109.500 502.080
7448 7449 7457 1 124.986 669.440
7449 7457 7458 1 115.117 334.720
7450 7449 7457 1 118.823 669.440
7452 10209 10208 1 109.500 418.400
7452 10209 10210 1 109.500 292.880
7452 10209 10211 1 109.500 292.880
7461 11263 11262 1 109.500 418.400
7461 11263 11264 1 109.500 292.880
7461 11263 11265 1 109.500 292.880
7466 7467 7474 1 125.237 669.440
7466 7483 7482 1 125.010 669.440
7466 7483 7484 1 116.164 669.440
7467 7466 7483 1 114.807 334.720
7467 7474 7475 1 114.843 334.720
7468 7467 7474 1 118.788 669.440
7469 3364 3363 1 109.500 502.080
7474 7475 7482 1 124.986 669.440
7475 7482 7483 1 115.117 334.720
7476 7475 7482 1 118.823 669.440
7477 1269 1268 1 109.500 502.080
7492 7493 7501 1 125.237 669.440
7492 7510 7509 1 125.010 669.440
7492 7510 7511 1 116.164 669.440
7493 7492 7510 1 114.807 334.720
7493 7501 7502 1 114.843 334.720
7494 7493 7501 1 118.788 669.440
7496 8642 8641 1 109.500 418.400
7496 8642 8643 1 109.500 292.880
7496 8642 8644 1 109.500 292.880
7501 7502 7509 1 124.986 669.440
7502 7509 7510 1 115.117 334.720
7503 7502 7509 1 118.823 669.440
7504 1127 1126 1 109.500 502.080
7513 9544 9543 1 109.500 418.400
7513 9544 9545 1 109.500 292.880
7513 9544 9546 1 109.500 292.880
7518 7519 7527 1 125.237 669.440
7518 7536 7535 1 125.010 669.440
7518 7536 7537 1 116.164 669.440
7519 7518 7536 1 114.807 334.720
7519 7527 7528 1 114.843 334.720
7520 7519 7527 1 118.788 669.440
7522 11808 11807 1 109.500 418.400
7522 11808 11809 1 109.500 292.880
7522 11808 11810 1 109.500 292.880
7527 7528 7535 1 124.986 669.440
7528 7535 7536 1 115.117 334.720
7529 7528 7535 1 118.823 669.440
7530 5070 5069 1 109.500 502.080
7539 11019 11018 1 109.500 418.400
7539 11019 11020 1 109.500 292.880
7539 11019 11021 1 109.500 292.880
7544 7545 7552 1 125.237 669.440
7544 7562 7561 1 125.010 669.440
7544 7562 7563 1 116.164 669.440
7545 7544 7562 1 114.807 334.720
7545 7552 7553 1 114.843 334.720
7546 7545 7552 1 118.788 669.440
7547 4011 4010 1 109.500 502.080
7552 7553 7561 1 124.986 669.440
7553 7561 7562 1 115.117 334.720
7554 7553 7561 1 118.823 669.440
7556 9946 9945 1 109.500 418.400
7556 9946 9947 1 109.500 292.880
7556 9946 9948 1 109.500 292.880
7565 12940 12939 1 109.500 418.400
7565 12940 12941 1 109.500 292.880
7565 12940 12942 1 109.500 292.880
7570 7571 7579 1 125.237 669.440
7570 7589 7588 1 125.010 669.440
7570 7589 7590 1 116.164 669.440
7571 7570 7589 1 114.807 334.720
7571 7579 7580 1 114.843 334.720
7572 7571 7579 1 118.788 669.440
7574 8177 8176 1 109.500 418.400
7574 8177 8178 1 109.500 292.880
7574 8177 8179 1 109.500 292.880
7579 7580 7588 1 124.986 669.440
7580 7588 7589 1 115.117 334.720
7581 7580 7588 1 118.823 669.440
7583 11255 11254 1 109.500 418.400
7583 11255 11256 1 109.500 292.880
7583 11255 11257 1 109.500 292.880
7598 7599 7606 1 125.237 669.440
7598 7615 7614 1 125.010 669.440
7598 7615 7616 1 116.164 669.440
7599 7598 7615 1 114.807 334.720
7599 7606 7607 1 114.843 334.720
7600 7599 7606 1 118.788 669.440
7601 6807 6806 1 109.500 502.080
7606 7607 7614 1 124.986 669.440
7607 7614 7615 1 115.117 334.720
7608 7607 7614 1 118.823 669.440
7609 518 517 1 109.500 502.080
7617 4392 4391 1 109.500 502.080
7622 7623 7632 1 125.237 669.440
7622 7642 7641 1 125.010 669.440
7622 7642 7643 1 116.164 669.440
7623 7622 7642 1 114.807 334.720
7623 7632 7633 1 114.843 334.720
7624 7623 7632 1 118.788 669.440
7632 7633 7641 1 124.986 669.440
7633 7641 7642 1 115.117 334.720
7634 7633 7641 1 118.823 669.440
7636 12732 12731 1 109.500 418.400
7636 12732 12733 1 109.500 292.880
7636 12732 12734 1 109.500 292.880
7645 12882 12881 1 109.500 418.400
7645 12882 12883 1 109.500 292.880
7645 12882 12884 1 109.500 292.880
7650 7651 7658 1 125.237 669.440
7650 7667 7666 1 125.010 669.440
7650 7667 7668 1 116.164 669.440
7651 7650 7667 1 114.807 334.720
7651 7658 7659 1 114.843 334.720
7652 7651 7658 1 118.788 669.440
7653 3545 3544 1 109.500 502.080
7658 7659 7666 1 124.986 669.440
7659 7666 7667 1 115.117 334.720
7660 7659 7666 1 118.823 669.440
7661 2023 2022 1 109.500 502.080
7670 11743 11742 1 109.500 418.400
7670 11743 11744 1 109.500 292.880
7670 11743 11745 1 109.500 292.880
7675 7676 7683 1 125.237 669.440
7675 7692 7691 1 125.010 669.440
7675 7692 7693 1 116.164 669.440
7676 7675 7692 1 114.807 334.720
7676 7683 7684 1 114.843 334.720
7677 7676 7683 1 118.788 669.440
7678 2041 2040 1 109.500 502.080
7683 7684 7691 1 124.986 669.440
7684 7691 7692 1 115.117 334.720
7685 7684 7691 1 118.823 669.440
7686 6423 6422 1 109.500 502.080
7695 11116 11115 1 109.500 418.400
7695 11116 11117 1 109.500 292.880
7695 11116 11118 1 109.500 292.880
7700 7701 7709 1 125.237 669.440
7700 7719 7718 1 125.010 669.440
7700 7719 7720 1 116.164 669.440
7701 7700 7719 1 114.807 334.720
7701 7709 7710 1 114.843 334.720
7702 7701 7709 1 118.788 669.440
7704 10585 10584 1 109.500 418.400
7704 10585 10586 1 109.500 292.880
7704 10585 10587 1 109.500 292.880
7709 7710 7718 1 124.986 669.440
7710 7718 7719 1 115.117 334.720
7711 7710 7718 1 118.823 669.440
7713 12041 12040 1 109.500 418.400
7713 12041 12042 1 109.500 292.880
7713 12041 12043 1 109.500 292.880
7721 544 543 1 109.500 502.080
7726 7727 7735 1 125.237 669.440
7726 7745 7744 1 125.010 669.440
7726 7745 7746 1 116.164 669.440
7727 7726 7745 1 114.807 334.720
7727 7735 7736 1 114.843 334.720
7728 7727 7735 1 118.788 669.440
7730 8396 8395 1 109.500 418.400
7730 8396 8397 1 109.500 292.880
7730 8396 8398 1 109.500 292.880
7735 7736 7744 1 124.986 669.440
7736 7744 7745 1 115.117 334.720
7737 7736 7744 1 118.823 669.440
7739 11702 11701 1 109.500 418.400
7739 11702 11703 1 109.500 292.880
7739 11702 11704 1 109.500 292.880
7747 1172 1171 1 109.500 502.080
7752 7753 7760 1 125.237 669.440
7752 7770 7769 1 125.010 669.440
7752 7770 7771 1 116.164 669.440
7753 7752 7770 1 114.807 334.720
7753 7760 7761 1 114.843 334.720
7754 7753 7760 1 118.788 669.440
7755 5197 5196 1 109.500 502.080
7760 7761 7769 1 124.986 669.440
7761 7769 7770 1 115.117 334.720
7762 7761 7769 1 118.823 669.440
7764 9426 9425 1 109.500 418.400
7764 9426 9427 1 109.500 292.880
7764 9426 9428 1 109.500 292.880
7772 455 454 1 109.500 502.080
7777 7778 7787 1 125.237 669.440
7777 7797 7796 1 125.010 669.440
7777 7797 7798 1 116.164 669.440
7778 7777 7797 1 114.807 334.720
7778 7787 7788 1 114.843 334.720
7779 7778 7787 1 118.788 669.440
7787 7788 7796 1 124.986 669.440
7788 7796 7797 1 115.117 334.720
7789 7788 7796 1 118.823 669.440
7791 11100 11099 1 109.500 418.400
7791 11100 11101 1 109.500 292.880
7791 11100 11102 1 109.500 292.880
7799 281 280 1 109.500 502.080
7804 7805 7812 1 125.237 669.440
7804 7822 7821 1 125.010 669.440
7804 7822 7823 1 116.164 669.440
7805 7804 7822 1 114.807 334.720
7805 7812 7813 1 114.843 334.720
7806 7805 7812 1 118.788 669.440
7807 3745 3744 1 109.500 502.080
7812 7813 7821 1 124.986 669.440
7813 7821 7822 1 115.117 334.720
7814 7813 7821 1 118.823 669.440
7816 10919 10918 1 109.500 418.400
7816 10919 10920 1 109.500 292.880
7816 10919 10921 1 109.500 292.880
7824 244 243 1 109.500 502.080
7829 7830 7837 1 125.237 669.440
7829 7846 7845 1 125.010 669.440
7829 7846 7847 1 116.164 669.440
7830 7829 7846 1 114.807 334.720
7830 7837 7838 1 114.843 334.720
7831 7830 7837 1 118.788 669.440
7832 3166 3165 1 109.500 502.080
7837 7838 7845 1 124.986 669.440
7838 7845 7846 1 115.117 334.720
7839 7838 7845 1 118.823 669.440
7840 5987 5986 1 109.500 502.080
7849 12484 12483 1 109.500 418.400
7849 12484 12485 1 109.500 292.880
7849 12484 12486 1 109.500 292.880
7854 7855 7863 1 125.237 669.440
7854 7872 7871 1 125.010 669.440
7854 7872 7873 1 116.164 669.440
7855 7854 7872 1 114.807 334.720
7855 7863 7864 1 114.843 334.720
7856 7855 7863 1 118.788 669.440
7858 9250 9249 1 109.500 418.400
7858 9250 9251 1 109.500 292.880
7858 9250 9252 1 109.500 292.880
7863 7864 7871 1 124.986 669.440
7864 7871 7872 1 115.117 334.720
7865 7864 7871 1 118.823 669.440
7866 6884 6883 1 109.500 502.080
7874 2767 2766 1 109.500 502.080
7879 7880 7887 1 125.237 669.440
7879 7896 7895 1 125.010 669.440
7879 7896 7897 1 116.164 669.440
7880 7879 7896 1 114.807 334.720
7880 7887 7888 1 114.843 334.720
7881 7880 7887 1 118.788 669.440
7882 3922 3921 1 109.500 502.080
7887 7888 7895 1 124.986 669.440
7888 7895 7896 1 115.117 334.720
7889 7888 7895 1 118.823 669.440
7890 4500 4499 1 109.500 502.080
7899 8896 8895 1 109.500 418.400
7899 8896 8897 1 109.500 292.880
7899 8896 8898 1 109.500 292.880
7904 7905 7912 1 125.237 669.440
7904 7922 7921 1 125.010 669.440
7904 7922 7923 1 116.164 669.440
7905 7904 7922 1 114.807 334.720
7905 7912 7913 1 114.843 334.720
7906 7905 7912 1 118.788 669.440
7907 5432 5431 1 109.500 502.080
7912 7913 7921 1 124.986 669.440
7913 7921 7922 1 115.117 334.720
7914 7913 7921 1 118.823 669.440
7916 9754 9753 1 109.500 418.400
7916 9754 9755 1 109.500 292.880
7916 9754 9756 1 109.500 292.880
7925 9410 9409 1 109.500 418.400
7925 9410 9411 1 109.500 292.880
7925 9410 9412 1 109.500 292.880
7930 7931 7938 1 125.237 669.440
7930 7949 7948 1 125.010 669.440
7930 7949 7950 1 116.164 669.440
7931 7930 7949 1 114.807 334.720
7931 7938 7939 1 114.843 334.720
7932 7931 7938 1 118.788 669.440
7933 7177 7176 1 109.500 502.080
7938 7939 7948 1 124.986 669.440
7939 7948 7949 1 115.117 334.720
7940 7939 7948 1 118.823 669.440
7951 3036 3035 1 109.500 502.080
7956 7957 7965 1 125.237 669.440
7956 7976 7975 1 125.010 669.440
7956 7976 7977 1 116.164 669.440
7957 7956 7976 1 114.807 334.720
7957 7965 7966 1 114.843 334.720
7958 7957 7965 1 118.788 669.440
7960 12338 12337 1 109.500 418.400
7960 12338 12339 1 109.500 292.880
7960 12338 12340 1 109.500 292.880
7965 7966 7975 1 124.986 669.440
7966 7975 7976 1 115.117 334.720
7967 7966 7975 1 118.823 669.440
7979 11184 11183 1 109.500 418.400
7979 11184 11185 1 109.500 292.880
7979 11184 11186 1 109.500 292.880
7984 7985 7994 1 125.237 669.440
7984 8004 8003 1 125.010 669.440
7984 8004 8005 1 116.164 669.440
7985 7984 8004 1 114.807 334.720
7985 7994 7995 1 114.843 334.720
7986 7985 7994 1 118.788 669.440
7994 7995 8003 1 124.986 669.440
7995 8003 8004 1 115.117 334.720
7996 7995 8003 1 118.823 669.440
7998 8650 8649 1 109.500 418.400
7998 8650 8651 1 109.500 292.880
7998 8650 8652 1 109.500 292.880
8006 4029 4028 1 109.500 502.080
8011 8012 8020 1 125.237 669.440
8011 8030 8029 1 125.010 669.440
8011 8030 8031 1 116.164 669.440
8012 8011 8030 1 114.807 334.720
8012 8020 8021 1 114.843 334.720
8013 8012 8020 1 118.788 669.440
8015 12322 12321 1 109.500 418.400
8015 12322 12323 1 109.500 292.880
8015 12322 12324 1 109.500 292.880
8020 8021 8029 1 124.986 669.440
8021 8029 8030 1 115.117 334.720
8022 8021 8029 1 118.823 669.440
8024 8144 8143 1 109.500 418.400
8024 8144 8145 1 109.500 292.880
8024 8144 8146 1 109.500 292.880
8033 11312 11311 1 109.500 418.400
8033 11312 11313 1 109.500 292.880
8033 11312 11314 1 109.500 292.880
8038 8039 8047 1 125.237 669.440
8038 8056 8055 1 125.010 669.440
8038 8056 8057 1 116.164 669.440
8039 8038 8056 1 114.807 334.720
8039 8047 8048 1 114.843 334.720
8040 8039 8047 1 118.788 669.440
8042 11568 11567 1 109.500 418.400
8042 11568 11569 1 109.500 292.880
8042 11568 11570 1 109.500 292.880
8047 8048 8055 1 124.986 669.440
8048 8055 8056 1 115.117 334.720
8049 8048 8055 1 118.823 669.440
8050 1451 1450 1 109.500 502.080
8058 4420 4419 1 109.500 502.080
8063 8064 8071 1 125.237 669.440
8063 8081 8080 1 125.010 669.440
8063 8081 8082 1 116.164 669.440
8064 8063 8081 1 114.807 334.720
8064 8071 8072 1 114.843 334.720
8065 8064 8071 1 118.788 669.440
8066 2967 2966 1 109.500 502.080
8071 8072 8080 1 124.986 669.440
8072 8080 8081 1 115.117 334.720
8073 8072 8080 1 118.823 669.440
8075 8974 8973 1 109.500 418.400
8075 8974 8975 1 109.500 292.880
8075 8974 8976 1 109.500 292.880
8083 6092 6091 1 109.500 502.080
8088 8089 8096 1 125.237 669.440
8088 8106 8105 1 125.010 669.440
8088 8106 8107 1 116.164 669.440
8089 8088 8106 1 114.807 334.720
8089 8096 8097 1 114.843 334.720
8090 8089 8096 1 118.788 669.440
8091 2265 2264 1 109.500 502.080
8096 8097 8105 1 124.986 669.440
8097 8105 8106 1 115.117 334.720
8098 8097 8105 1 118.823 669.440
8100 9721 9720 1 109.500 418.400
8100 9721 9722 1 109.500 292.880
8100 9721 9723 1 109.500 292.880
8109 10895 10894 1 109.500 418.400
8109 10895 10896 1 109.500 292.880
8109 10895 10897 1 109.500 292.880
8114 8115 8123 1 125.237 669.440
8114 8134 8133 1 125.010 669.440
8114 8134 8135 1 116.164 669.440
8115 8114 8134 1 114.807 334.720
8115 8123 8124 1 114.843 334.720
8116 8115 8123 1 118.788 669.440
8118 11882 11881 1 109.500 418.400
8118 11882 11883 1 109.500 292.880
8118 11882 11884 1 109.500 292.880
8123 8124 8133 1 124.986 669.440
8124 8133 8134 1 115.117 334.720
8125 8124 8133 1 118.823 669.440
8136 826 825 1 109.500 502.080
8141 8142 8149 1 125.237 669.440
8141 8159 8158 1 125.010 669.440
8141 8159 8160 1 116.164 669.440
8142 8141 8159 1 114.807 334.720
8142 8149 8150 1 114.843 334.720
8143 8142 8149 1 118.788 669.440
8144 8024 8023 1 109.500 502.080
8149 8150 8158 1 124.986 669.440
8150 8158 8159 1 115.117 334.720
8151 8150 8158 1 118.823 669.440
8153 8717 8716 1 109.500 418.400
8153 8717 8718 1 109.500 292.880
8153 8717 8719 1 109.500 292.880
8161 509 508 1 109.500 502.080
8166 8167 8174 1 125.237 669.440
8166 8183 8182 1 125.010 669.440
8166 8183 8184 1 116.164 669.440
8167 8166 8183 1 114.807 334.720
8167 8174 8175 1 114.843 334.720
8168 8167 8174 1 118.788 669.440
8169 1550 1549 1 109.500 502.080
8174 8175 8182 1 124.986 669.440
8175 8182 8183 1 115.117 334.720
8176 8175 8182 1 118.823 669.440
8177 7574 7573 1 109.500 502.080
8185 3588 3587 1 109.500 502.080
8190 8191 8198 1 125.237 669.440
8190 8208 8207 1 125.010 669.440
8190 8208 8209 1 116.164 669.440
8191 8190 8208 1 114.807 334.720
8191 8198 8199 1 114.843 334.720
8192 8191 8198 1 118.788 669.440
8193 4324 4323 1 109.500 502.080
8198 8199 8207 1 124.986 669.440
8199 8207 8208 1 115.117 334.720
8200 8199 8207 1 118.823 669.440
8202 8982 8981 1 109.500 418.400
8202 8982 8983 1 109.500 292.880
8202 8982 8984 1 109.500 292.880
8210 2137 2136 1 109.500 502.080
8215 8216 8224 1 125.237 669.440
8215 8234 8233 1 125.010 669.440
8215 8234 8235 1 116.164 669.440
8216 8215 8234 1 114.807 334.720
8216 8224 8225 1 114.843 334.720
8217 8216 8224 1 118.788 669.440
8219 9057 9056 1 109.500 418.400
8219 9057 9058 1 109.500 292.880
8219 9057 9059 1 109.500 292.880
8224 8225 8233 1 124.986 669.440
8225 8233 8234 1 115.117 334.720
8226 8225 8233 1 118.823 669.440
8228 12354 12353 1 109.500 418.400
8228 12354 12355 1 109.500 292.880
8228 12354 12356 1 109.500 292.880
8237 8733 8732 1 109.500 418.400
8237 8733 8734 1 109.500 292.880
8237 8733 8735 1 109.500 292.880
8242 8243 8251 1 125.237 669.440
8242 8260 8259 1 125.010 669.440
8242 8260 8261 1 116.164 669.440
8243 8242 8260 1 114.807 334.720
8243 8251 8252 1 114.843 334.720
8244 8243 8251 1 118.788 669.440
8246 12948 12947 1 109.500 418.400
8246 12948 12949 1 109.500 292.880
8246 12948 12950 1 109.500 292.880
8251 8252 8259 1 124.986 669.440
8252 8259 8260 1 115.117 334.720
8253 8252 8259 1 118.823 669.440
8254 2435 2434 1 109.500 502.080
8262 4817 4816 1 109.500 502.080
8267 8268 8276 1 125.237 669.440
8267 8286 8285 1 125.010 669.440
8267 8286 8287 1 116.164 669.440
8268 8267 8286 1 114.807 334.720
8268 8276 8277 1 114.843 334.720
8269 8268 8276 1 118.788 669.440
8271 12163 12162 1 109.500 418.400
8271 12163 12164 1 109.500 292.880
8271 12163 12165 1 109.500 292.880
8276 8277 8285 1 124.986 669.440
8277 8285 8286 1 115.117 334.720
8278 8277 8285 1 118.823 669.440
8280 10102 10101 1 109.500 418.400
8280 10102 10103 1 109.500 292.880
8280 10102 10104 1 109.500 292.880
8288 6190 6189 1 109.500 502.080
8293 8294 8301 1 125.237 669.440
8293 8312 8311 1 125.010 669.440
8293 8312 8313 1 116.164 669.440
8294 8293 8312 1 114.807 334.720
8294 8301 8302 1 114.843 334.720
8295 8294 8301 1 118.788 669.440
8296 1487 1486 1 109.500 502.080
8301 8302 8311 1 124.986 669.440
8302 8311 8312 1 115.117 334.720
8303 8302 8311 1 118.823 669.440
8314 6537 6536 1 109.500 502.080
8319 8320 8327 1 125.237 669.440
8319 8336 8335 1 125.010 669.440
8319 8336 8337 1 116.164 669.440
8320 8319 8336 1 114.807 334.720
8320 8327 8328 1 114.843 334.720
8321 8320 8327 1 118.788 669.440
8322 2793 2792 1 109.500 502.080
8327 8328 8335 1 124.986 669.440
8328 8335 8336 1 115.117 334.720
8329 8328 8335 1 118.823 669.440
8330 80 79 1 109.500 502.080
8338 6952 6951 1 109.500 502.080
8343 8344 8351 1 125.237 669.440
8343 8360 8359 1 125.010 669.440
8343 8360 8361 1 116.164 669.440
8344 8343 8360 1 114.807 334.720
8344 8351 8352 1 114.843 334.720
8345 8344 8351 1 118.788 669.440
8346 6316 6315 1 109.500 502.080
8351 8352 8359 1 124.986 669.440
8352 8359 8360 1 115.117 334.720
8353 8352 8359 1 118.823 669.440
8354 1433 1432 1 109.500 502.080
8362 6181 6180 1 109.500 502.080
8367 8368 8376 1 125.237 669.440
8367 8386 8385 1 125.010 669.440
8367 8386 8387 1 116.164 669.440
8368 8367 8386 1 114.807 334.720
8368 8376 8377 1 114.843 334.720
8369 8368 8376 1 118.788 669.440
8371 10094 10093 1 109.500 418.400
8371 10094 10095 1 109.500 292.880
8371 10094 10096 1 109.500 292.880
8376 8377 8385 1 124.986 669.440
8377 8385 8386 1 115.117 334.720
8378 8377 8385 1 118.823 669.440
8380 12610 12609 1 109.500 418.400
8380 12610 12611 1 109.500 292.880
8380 12610 12612 1 109.500 292.880
8388 3949 3948 1 109.500 502.080
8393 8394 8401 1 125.237 669.440
8393 8411 8410 1 125.010 669.440
8393 8411 8412 1 116.164 669.440
8394 8393 8411 1 114.807 334.720
8394 8401 8402 1 114.843 334.720
8395 8394 8401 1 118.788 669.440
8396 7730 7729 1 109.500 502.080
8401 8402 8410 1 124.986 669.440
8402 8410 8411 1 115.117 334.720
8403 8402 8410 1 118.823 669.440
8405 12594 12593 1 109.500 418.400
8405 12594 12595 1 109.500 292.880
8405 12594 12596 1 109.500 292.880
8414 9664 9663 1 109.500 418.400
8414 9664 9665 1 109.500 292.880
8414 9664 9666 1 109.500 292.880
8419 8420 8428 1 125.237 669.440
8419 8437 8436 1 125.010 669.440
8419 8437 8438 1 116.164 669.440
8420 8419 8437 1 114.807 334.720
8420 8428 8429 1 114.843 334.720
8421 8420 8428 1 118.788 669.440
8423 9308 9307 1 109.500 418.400
8423 9308 9309 1 109.500 292.880
8423 9308 9310 1 109.500 292.880
8428 8429 8436 1 124.986 669.440
8429 8436 8437 1 115.117 334.720
8430 8429 8436 1 118.823 669.440
8431 2669 2668 1 109.500 502.080
8439 5996 5995 1 109.500 502.080
8444 8445 8454 1 125.237 669.440
8444 8463 8462 1 125.010 669.440
8444 8463 8464 1 116.164 669.440
8445 8444 8463 1 114.807 334.720
8445 8454 8455 1 114.843 334.720
8446 8445 8454 1 118.788 669.440
8454 8455 8462 1 124.986 669.440
8455 8462 8463 1 115.117 334.720
8456 8455 8462 1 118.823 669.440
8457 2319 2318 1 109.500 502.080
8465 3437 3436 1 109.500 502.080
8470 8471 8478 1 125.237 669.440
8470 8488 8487 1 125.010 669.440
8470 8488 8489 1 116.164 669.440
8471 8470 8488 1 114.807 334.720
8471 8478 8479 1 114.843 334.720
8472 8471 8478 1 118.788 669.440
8473 6695 6694 1 109.500 502.080
8478 8479 8487 1 124.986 669.440
8479 8487 8488 1 115.117 334.720
8480 8479 8487 1 118.823 669.440
8482 10235 10234 1 109.500 418.400
8482 10235 10236 1 109.500 292.880
8482 10235 10237 1 109.500 292.880
8491 12057 12056 1 109.500 418.400
8491 12057 12058 1 109.500 292.880
8491 12057 12059 1 109.500 292.880
8496 8497 8504 1 125.237 669.440
8496 8513 8512 1 125.010 669.440
8496 8513 8514 1 116.164 669.440
8497 8496 8513 1 114.807 334.720
8497 8504 8505 1 114.843 334.720
8498 8497 8504 1 118.788 669.440
8499 4215 4214 1 109.500 502.080
8504 8505 8512 1 124.986 669.440
8505 8512 8513 1 115.117 334.720
8506 8505 8512 1 118.823 669.440
8507 2802 2801 1 109.500 502.080
8515 7316 7315 1 109.500 502.080
8520 8521 8528 1 125.237 669.440
8520 8538 8537 1 125.010 669.440
8520 8538 8539 1 116.164 669.440
8521 8520 8538 1 114.807 334.720
8521 8528 8529 1 114.843 334.720
8522 8521 8528 1 118.788 669.440
8523 1933 1932 1 109.500 502.080
8528 8529 8537 1 124.986 669.440
8529 8537 8538 1 115.117 334.720
8530 8529 8537 1 118.823 669.440
8532 10711 10710 1 109.500 418.400
8532 10711 10712 1 109.500 292.880
8532 10711 10713 1 109.500 292.880
8541 11108 11107 1 109.500 418.400
8541 11108 11109 1 109.500 292.880
8541 11108 11110 1 109.500 292.880
8546 8547 8554 1 125.237 669.440
8546 8564 8563 1 125.010 669.440
8546 8564 8565 1 116.164 669.440
8547 8546 8564 1 114.807 334.720
8547 8554 8555 1 114.843 334.720
8548 8547 8554 1 118.788 669.440
8549 5206 5205 1 109.500 502.080
8554 8555 8563 1 124.986 669.440
8555 8563 8564 1 115.117 334.720
8556 8555 8563 1 118.823 669.440
8558 12684 12683 1 109.500 418.400
8558 12684 12685 1 109.500 292.880
8558 12684 12686 1 109.500 292.880
8566 1163 1162 1 109.500 502.080
8571 8572 8580 1 125.237 669.440
8571 8589 8588 1 125.010 669.440
8571 8589 8590 1 116.164 669.440
8572 8571 8589 1 114.807 334.720
8572 8580 8581 1 114.843 334.720
8573 8572 8580 1 118.788 669.440
8575 10962 10961 1 109.500 418.400
8575 10962 10963 1 109.500 292.880
8575 10962 10964 1 109.500 292.880
8580 8581 8588 1 124.986 669.440
8581 8588 8589 1 115.117 334.720
8582 8581 8588 1 118.823 669.440
8583 6926 6925 1 109.500 502.080
8591 4727 4726 1 109.500 502.080
8596 8597 8604 1 125.237 669.440
8596 8614 8613 1 125.010 669.440
8596 8614 8615 1 116.164 669.440
8597 8596 8614 1 114.807 334.720
8597 8604 8605 1 114.843 334.720
8598 8597 8604 1 118.788 669.440
8599 4438 4437 1 109.500 502.080
8604 8605 8613 1 124.986 669.440
8605 8613 8614 1 115.117 334.720
8606 8605 8613 1 118.823 669.440
8608 10516 10515 1 109.500 418.400
8608 10516 10517 1 109.500 292.880
8608 10516 10518 1 109.500 292.880
8617 9614 9613 1 109.500 418.400
8617 9614 9615 1 109.500 292.880
8617 9614 9616 1 109.500 292.880
8622 8623 8631 1 125.237 669.440
8622 8640 8639 1 125.010 669.440
8622 8640 8641 1 116.164 669.440
8623 8622 8640 1 114.807 334.720
8623 8631 8632 1 114.843 334.720
8624 8623 8631 1 118.788 669.440
8626 8904 8903 1 109.500 418.400
8626 8904 8905 1 109.500 292.880
8626 8904 8906 1 109.500 292.880
8631 8632 8639 1 124.986 669.440
8632 8639 8640 1 115.117 334.720
8633 8632 8639 1 118.823 669.440
8634 1136 1135 1 109.500 502.080
8642 7496 7495 1 109.500 502.080
8647 8648 8655 1 125.237 669.440
8647 8664 8663 1 125.010 669.440
8647 8664 8665 1 116.164 669.440
8648 8647 8664 1 114.807 334.720
8648 8655 8656 1 114.843 334.720
8649 8648 8655 1 118.788 669.440
8650 7998 7997 1 109.500 502.080
8655 8656 8663 1 124.986 669.440
8656 8663 8664 1 115.117 334.720
8657 8656 8663 1 118.823 669.440
8658 6875 6874 1 109.500 502.080
8666 6730 6729 1 109.500 502.080
8671 8672 8679 1 125.237 669.440
8671 8689 8688 1 125.010 669.440
8671 8689 8690 1 116.164 669.440
8672 8671 8689 1 114.807 334.720
8672 8679 8680 1 114.843 334.720
8673 8672 8679 1 118.788 669.440
8674 1243 1242 1 109.500 502.080
8679 8680 8688 1 124.986 669.440
8680 8688 8689 1 115.117 334.720
8681 8680 8688 1 118.823 669.440
8683 11964 11963 1 109.500 418.400
8683 11964 11965 1 109.500 292.880
8683 11964 11966 1 109.500 292.880
8691 6764 6763 1 109.500 502.080
8696 8697 8704 1 125.237 669.440
8696 8715 8714 1 125.010 669.440
8696 8715 8716 1 116.164 669.440
8697 8696 8715 1 114.807 334.720
8697 8704 8705 1 114.843 334.720
8698 8697 8704 1 118.788 669.440
8699 500 499 1 109.500 502.080
8704 8705 8714 1 124.986 669.440
8705 8714 8715 1 115.117 334.720
8706 8705 8714 1 118.823 669.440
8717 8153 8152 1 109.500 502.080
8722 8723 8730 1 125.237 669.440
8722 8739 8738 1 125.010 669.440
8722 8739 8740 1 116.164 669.440
8723 8722 8739 1 114.807 334.720
8723 8730 8731 1 114.843 334.720
8724 8723 8730 1 118.788 669.440
8725 6943 6942 1 109.500 502.080
8730 8731 8738 1 124.986 669.440
8731 8738 8739 1 115.117 334.720
8732 8731 8738 1 118.823 669.440
8733 8237 8236 1 109.500 502.080
8742 12330 12329 1 109.500 418.400
8742 12330 12331 1 109.500 292.880
8742 12330 12332 1 109.500 292.880
8747 8748 8756 1 125.237 669.440
8747 8766 8765 1 125.010 669.440
8747 8766 8767 1 116.164 669.440
8748 8747 8766 1 114.807 334.720
8748 8756 8757 1 114.843 334.720
8749 8748 8756 1 118.788 669.440
8751 9929 9928 1 109.500 418.400
8751 9929 9930 1 109.500 292.880
8751 9929 9931 1 109.500 292.880
8756 8757 8765 1 124.986 669.440
8757 8765 8766 1 115.117 334.720
8758 8757 8765 1 118.823 669.440
8760 11874 11873 1 109.500 418.400
8760 11874 11875 1 109.500 292.880
8760 11874 11876 1 109.500 292.880
8769 11576 11575 1 109.500 418.400
8769 11576 11577 1 109.500 292.880
8769 11576 11578 1 109.500 292.880
8774 8775 8782 1 125.237 669.440
8774 8792 8791 1 125.010 669.440
8774 8792 8793 1 116.164 669.440
8775 8774 8792 1 114.807 334.720
8775 8782 8783 1 114.843 334.720
8776 8775 8782 1 118.788 669.440
8777 5648 5647 1 109.500 502.080
8782 8783 8791 1 124.986 669.440
8783 8791 8792 1 115.117 334.720
8784 8783 8791 1 118.823 669.440
8786 11775 11774 1 109.500 418.400
8786 11775 11776 1 109.500 292.880
8786 11775 11777 1 109.500 292.880
8794 7030 7029 1 109.500 502.080
8799 8800 8808 1 125.237 669.440
8799 8817 8816 1 125.010 669.440
8799 8817 8818 1 116.164 669.440
8800 8799 8817 1 114.807 334.720
8800 8808 8809 1 114.843 334.720
8801 8800 8808 1 118.788 669.440
8803 9367 9366 1 109.500 418.400
8803 9367 9368 1 109.500 292.880
8803 9367 9369 1 109.500 292.880
8808 8809 8816 1 124.986 669.440
8809 8816 8817 1 115.117 334.720
8810 8809 8816 1 118.823 669.440
8811 363 362 1 109.500 502.080
8820 11441 11440 1 109.500 418.400
8820 11441 11442 1 109.500 292.880
8820 11441 11443 1 109.500 292.880
8825 8826 8833 1 125.237 669.440
8825 8842 8841 1 125.010 669.440
8825 8842 8843 1 116.164 669.440
8826 8825 8842 1 114.807 334.720
8826 8833 8834 1 114.843 334.720
8827 8826 8833 1 118.788 669.440
8828 3392 3391 1 109.500 502.080
8833 8834 8841 1 124.986 669.440
8834 8841 8842 1 115.117 334.720
8835 8834 8841 1 118.823 669.440
8836 7325 7324 1 109.500 502.080
8845 10476 10475 1 109.500 418.400
8845 10476 10477 1 109.500 292.880
8845 10476 10478 1 109.500 292.880
8850 8851 8858 1 125.237 669.440
8850 8868 8867 1 125.010 669.440
8850 8868 8869 1 116.164 669.440
8851 8850 8868 1 114.807 334.720
8851 8858 8859 1 114.843 334.720
8852 8851 8858 1 118.788 669.440
8853 226 225 1 109.500 502.080
8858 8859 8867 1 124.986 669.440
8859 8867 8868 1 115.117 334.720
8860 8859 8867 1 118.823 669.440
8862 10935 10934 1 109.500 418.400
8862 10935 10936 1 109.500 292.880
8862 10935 10937 1 109.500 292.880
8870 317 316 1 109.500 502.080
8875 8876 8885 1 125.237 669.440
8875 8894 8893 1 125.010 669.440
8875 8894 8895 1 116.164 669.440
8876 8875 8894 1 114.807 334.720
8876 8885 8886 1 114.843 334.720
8877 8876 8885 1 118.788 669.440
8885 8886 8893 1 124.986 669.440
8886 8893 8894 1 115.117 334.720
8887 8886 8893 1 118.823 669.440
8888 681 680 1 109.500 502.080
8896 7899 7898 1 109.500 502.080
8901 8902 8909 1 125.237 669.440
8901 8919 8918 1 125.010 669.440
8901 8919 8920 1 116.164 669.440
8902 8901 8919 1 114.807 334.720
8902 8909 8910 1 114.843 334.720
8903 8902 8909 1 118.788 669.440
8904 8626 8625 1 109.500 502.080
8909 8910 8918 1 124.986 669.440
8910 8918 8919 1 115.117 334.720
8911 8910 8918 1 118.823 669.440
8913 9459 9458 1 109.500 418.400
8913 9459 9460 1 109.500 292.880
8913 9459 9461 1 109.500 292.880
8921 5295 5294 1 109.500 502.080
8926 8927 8936 1 125.237 669.440
8926 8946 8945 1 125.010 669.440
8926 8946 8947 1 116.164 669.440
8927 8926 8946 1 114.807 334.720
8927 8936 8937 1 114.843 334.720
8928 8927 8936 1 118.788 669.440
8936 8937 8945 1 124.986 669.440
8937 8945 8946 1 115.117 334.720
8938 8937 8945 1 118.823 669.440
8940 11751 11750 1 109.500 418.400
8940 11751 11752 1 109.500 292.880
8940 11751 11753 1 109.500 292.880
8948 5622 5621 1 109.500 502.080
8953 8954 8962 1 125.237 669.440
8953 8972 8971 1 125.010 669.440
8953 8972 8973 1 116.164 669.440
8954 8953 8972 1 114.807 334.720
8954 8962 8963 1 114.843 334.720
8955 8954 8962 1 118.788 669.440
8957 10086 10085 1 109.500 418.400
8957 10086 10087 1 109.500 292.880
8957 10086 10088 1 109.500 292.880
8962 8963 8971 1 124.986 669.440
8963 8971 8972 1 115.117 334.720
8964 8963 8971 1 118.823 669.440
8966 10183 10182 1 109.500 418.400
8966 10183 10184 1 109.500 292.880
8966 10183 10185 1 109.500 292.880
8974 8075 8074 1 109.500 502.080
8979 8980 8987 1 125.237 669.440
8979 8996 8995 1 125.010 669.440
8979 8996 8997 1 116.164 669.440
8980 8979 8996 1 114.807 334.720
8980 8987 8988 1 114.843 334.720
8981 8980 8987 1 118.788 669.440
8982 8202 8201 1 109.500 502.080
8987 8988 8995 1 124.986 669.440
8988 8995 8996 1 115.117 334.720
8989 8988 8995 1 118.823 669.440
8990 4860 4859 1 109.500 502.080
8998 2949 2948 1 109.500 502.080
9003 9004 9013 1 125.237 669.440
9003 9022 9021 1 125.010 669.440
9003 9022 9023 1 116.164 669.440
9004 9003 9022 1 114.807 334.720
9004 9013 9014 1 114.843 334.720
9005 9004 9013 1 118.788 669.440
9013 9014 9021 1 124.986 669.440
9014 9021 9022 1 115.117 334.720
9015 9014 9021 1 118.823 669.440
9016 7307 7306 1 109.500 502.080
9024 1969 1968 1 109.500 502.080
9029 9030 9037 1 125.237 669.440
9029 9047 9046 1 125.010 669.440
9029 9047 9048 1 116.164 669.440
9030 9029 9047 1 114.807 334.720
9030 9037 9038 1 114.843 334.720
9031 9030 9037 1 118.788 669.440
9032 5450 5449 1 109.500 502.080
9037 9038 9046 1 124.986 669.440
9038 9046 9047 1 115.117 334.720
9039 9038 9046 1 118.823 669.440
9041 12602 12601 1 109.500 418.400
9041 12602 12603 1 109.500 292.880
9041 12602 12604 1 109.500 292.880
9049 5773 5772 1 109.500 502.080
9054 9055 9062 1 125.237 669.440
9054 9071 9070 1 125.010 669.440
9054 9071 9072 1 116.164 669.440
9055 9054 9071 1 114.807 334.720
9055 9062 9063 1 114.843 334.720
9056 9055 9062 1 118.788 669.440
9057 8219 8218 1 109.500 502.080
9062 9063 9070 1 124.986 669.440
9063 9070 9071 1 115.117 334.720
9064 9063 9070 1 118.823 669.440
9065 718 717 1 109.500 502.080
9073 2337 2336 1 109.500 502.080
9078 9079 9086 1 125.237 669.440
9078 9095 9094 1 125.010 669.440
9078 9095 9096 1 116.164 669.440
9079 9078 9095 1 114.807 334.720
9079 9086 9087 1 114.843 334.720
9080 9079 9086 1 118.788 669.440
9081 1727 1726 1 109.500 502.080
9086 9087 9094 1 124.986 669.440
9087 9094 9095 1 115.117 334.720
9088 9087 9094 1 118.823 669.440
9089 6773 6772 1 109.500 502.080
9098 12772 12771 1 109.500 418.400
9098 12772 12773 1 109.500 292.880
9098 12772 12774 1 109.500 292.880
9103 9104 9111 1 125.237 669.440
9103 9120 9119 1 125.010 669.440
9103 9120 9121 1 116.164 669.440
9104 9103 9120 1 114.807 334.720
9104 9111 9112 1 114.843 334.720
9105 9104 9111 1 118.788 669.440
9106 3410 3409 1 109.500 502.080
9111 9112 9119 1 124.986 669.440
9112 9119 9120 1 115.117 334.720
9113 9112 9119 1 118.823 669.440
9114 2328 2327 1 109.500 502.080
9123 11956 11955 1 109.500 418.400
9123 11956 11957 1 109.500 292.880
9123 11956 11958 1 109.500 292.880
9128 9129 9136 1 125.237 669.440
9128 9147 9146 1 125.010 669.440
9128 9147 9148 1 116.164 669.440
9129 9128 9147 1 114.807 334.720
9129 9136 9137 1 114.843 334.720
9130 9129 9136 1 118.788 669.440
9131 5564 5563 1 109.500 502.080
9136 9137 9146 1 124.986 669.440
9137 9146 9147 1 115.117 334.720
9138 9137 9146 1 118.823 669.440
9156 9157 9165 1 125.237 669.440
9156 9174 9173 1 125.010 669.440
9156 9174 9175 1 116.164 669.440
9157 9156 9174 1 114.807 334.720
9157 9165 9166 1 114.843 334.720
9158 9157 9165 1 118.788 669.440
9160 12502 12501 1 109.500 418.400
9160 12502 12503 1 109.500 292.880
9160 12502 12504 1 109.500 292.880
9165 9166 9173 1 124.986 669.440
9166 9173 9174 1 115.117 334.720
9167 9166 9173 1 118.823 669.440
9168 4639 4638 1 109.500 502.080
9176 6162 6161 1 109.500 502.080
9181 9182 9189 1 125.237 669.440
9181 9198 9197 1 125.010 669.440
9181 9198 9199 1 116.164 669.440
9182 9181 9198 1 114.807 334.720
9182 9189 9190 1 114.843 334.720
9183 9182 9189 1 118.788 669.440
9184 1234 1233 1 109.500 502.080
9189 9190 9197 1 124.986 669.440
9190 9197 9198 1 115.117 334.720
9191 9190 9197 1 118.823 669.440
9192 2542 2541 1 109.500 502.080
9200 4826 4825 1 109.500 502.080
9205 9206 9214 1 125.237 669.440
9205 9223 9222 1 125.010 669.440
9205 9223 9224 1 116.164 669.440
9206 9205 9223 1 114.807 334.720
9206 9214 9215 1 114.843 334.720
9207 9206 9214 1 118.788 669.440
9209 11719 11718 1 109.500 418.400
9209 11719 11720 1 109.500 292.880
9209 11719 11721 1 109.500 292.880
9214 9215 9222 1 124.986 669.440
9215 9222 9223 1 115.117 334.720
9216 9215 9222 1 118.823 669.440
9217 3790 3789 1 109.500 502.080
9225 853 852 1 109.500 502.080
9230 9231 9238 1 125.237 669.440
9230 9248 9247 1 125.010 669.440
9230 9248 9249 1 116.164 669.440
9231 9230 9248 1 114.807 334.720
9231 9238 9239 1 114.843 334.720
9232 9231 9238 1 118.788 669.440
9233 5269 5268 1 109.500 502.080
9238 9239 9247 1 124.986 669.440
9239 9247 9248 1 115.117 334.720
9240 9239 9247 1 118.823 669.440
9242 10452 10451 1 109.500 418.400
9242 10452 10453 1 109.500 292.880
9242 10452 10454 1 109.500 292.880
9250 7858 7857 1 109.500 502.080
9255 9256 9263 1 125.237 669.440
9255 9272 9271 1 125.010 669.440
9255 9272 9273 1 116.164 669.440
9256 9255 9272 1 114.807 334.720
9256 9263 9264 1 114.843 334.720
9257 9256 9263 1 118.788 669.440
9258 4055 4054 1 109.500 502.080
9263 9264 9271 1 124.986 669.440
9264 9271 9272 1 115.117 334.720
9265 9264 9271 1 118.823 669.440
9266 1541 1540 1 109.500 502.080
9274 2625 2624 1 109.500 502.080
9279 9280 9287 1 125.237 669.440
9279 9296 9295 1 125.010 669.440
9279 9296 9297 1 116.164 669.440
9280 9279 9296 1 114.807 334.720
9280 9287 9288 1 114.843 334.720
9281 9280 9287 1 118.788 669.440
9282 3335 3334 1 109.500 502.080
9287 9288 9295 1 124.986 669.440
9288 9295 9296 1 115.117 334.720
9289 9288 9295 1 118.823 669.440
9290 3291 3290 1 109.500 502.080
9305 9306 9313 1 125.237 669.440
9305 9323 9322 1 125.010 669.440
9305 9323 9324 1 116.164 669.440
9306 9305 9323 1 114.807 334.720
9306 9313 9314 1 114.843 334.720
9307 9306 9313 1 118.788 669.440
9308 8423 8422 1 109.500 502.080
9313 9314 9322 1 124.986 669.440
9314 9322 9323 1 115.117 334.720
9315 9314 9322 1 118.823 669.440
9317 9970 9969 1 109.500 418.400
9317 9970 9971 1 109.500 292.880
9317 9970 9972 1 109.500 292.880
9326 9672 9671 1 109.500 418.400
9326 9672 9673 1 109.500 292.880
9326 9672 9674 1 109.500 292.880
9331 9332 9339 1 125.237 669.440
9331 9348 9347 1 125.010 669.440
9331 9348 9349 1 116.164 669.440
9332 9331 9348 1 114.807 334.720
9332 9339 9340 1 114.843 334.720
9333 9332 9339 1 118.788 669.440
9334 4099 4098 1 109.500 502.080
9339 9340 9347 1 124.986 669.440
9340 9347 9348 1 115.117 334.720
9341 9340 9347 1 118.823 669.440
9342 144 143 1 109.500 502.080
9351 11328 11327 1 109.500 418.400
9351 11328 11329 1 109.500 292.880
9351 11328 11330 1 109.500 292.880
9356 9357 9364 1 125.237 669.440
9356 9373 9372 1 125.010 669.440
9356 9373 9374 1 116.164 669.440
9357 9356 9373 1 114.807 334.720
9357 9364 9365 1 114.843 334.720
9358 9357 9364 1 118.788 669.440
9359 6207 6206 1 109.500 502.080
9364 9365 9372 1 124.986 669.440
9365 9372 9373 1 115.117 334.720
9366 9365 9372 1 118.823 669.440
9367 8803 8802 1 109.500 502.080
9382 9383 9391 1 125.237 669.440
9382 9400 9399 1 125.010 669.440
9382 9400 9401 1 116.164 669.440
9383 9382 9400 1 114.807 334.720
9383 9391 9392 1 114.843 334.720
9384 9383 9391 1 118.788 669.440
9386 11515 11514 1 109.500 418.400
9386 11515 11516 1 109.500 292.880
9386 11515 11517 1 109.500 292.880
9391 9392 9399 1 124.986 669.440
9392 9399 9400 1 115.117 334.720
9393 9392 9399 1 118.823 669.440
9394 907 906 1 109.500 502.080
9402 5363 5362 1 109.500 502.080
9407 9408 9415 1 125.237 669.440
9407 9424 9423 1 125.010 669.440
9407 9424 9425 1 116.164 669.440
9408 9407 9424 1 114.807 334.720
9408 9415 9416 1 114.843 334.720
9409 9408 9415 1 118.788 669.440
9410 7925 7924 1 109.500 502.080
9415 9416 9423 1 124.986 669.440
9416 9423 9424 1 115.117 334.720
9417 9416 9423 1 118.823 669.440
9418 1978 1977 1 109.500 502.080
9426 7764 7763 1 109.500 502.080
9431 9432 9439 1 125.237 669.440
9431 9449 9448 1 125.010 669.440
9431 9449 9450 1 116.164 669.440
9432 9431 9449 1 114.807 334.720
9432 9439 9440 1 114.843 334.720
9433 9432 9439 1 118.788 669.440
9434 5867 5866 1 109.500 502.080
9439 9440 9448 1 124.986 669.440
9440 9448 9449 1 115.117 334.720
9441 9440 9448 1 118.823 669.440
9443 10217 10216 1 109.500 418.400
9443 10217 10218 1 109.500 292.880
9443 10217 10219 1 109.500 292.880
9451 2940 2939 1 109.500 502.080
9456 9457 9464 1 125.237 669.440
9456 9473 9472 1 125.010 669.440
9456 9473 9474 1 116.164 669.440
9457 9456 9473 1 114.807 334.720
9457 9464 9465 1 114.843 334.720
9458 9457 9464 1 118.788 669.440
9459 8913 8912 1 109.500 502.080
9464 9465 9472 1 124.986 669.440
9465 9472 9473 1 115.117 334.720
9466 9465 9472 1 118.823 669.440
9467 3003 3002 1 109.500 502.080
9475 2119 2118 1 109.500 502.080
9480 9481 9489 1 125.237 669.440
9480 9499 9498 1 125.010 669.440
9480 9499 9500 1 116.164 669.440
9481 9480 9499 1 114.807 334.720
9481 9489 9490 1 114.843 334.720
9482 9481 9489 1 118.788 669.440
9484 10012 10011 1 109.500 418.400
9484 10012 10013 1 109.500 292.880
9484 10012 10014 1 109.500 292.880
9489 9490 9498 1 124.986 669.440
9490 9498 9499 1 115.117 334.720
9491 9490 9498 1 118.823 669.440
9493 12708 12707 1 109.500 418.400
9493 12708 12709 1 109.500 292.880
9493 12708 12710 1 109.500 292.880
9501 4517 4516 1 109.500 502.080
9506 9507 9515 1 125.237 669.440
9506 9525 9524 1 125.010 669.440
9506 9525 9526 1 116.164 669.440
9507 9506 9525 1 114.807 334.720
9507 9515 9516 1 114.843 334.720
9508 9507 9515 1 118.788 669.440
9510 12083 12082 1 109.500 418.400
9510 12083 12084 1 109.500 292.880
9510 12083 12085 1 109.500 292.880
9515 9516 9524 1 124.986 669.440
9516 9524 9525 1 115.117 334.720
9517 9516 9524 1 118.823 669.440
9519 12025 12024 1 109.500 418.400
9519 12025 12026 1 109.500 292.880
9519 12025 12027 1 109.500 292.880
9527 6379 6378 1 109.500 502.080
9532 9533 9541 1 125.237 669.440
9532 9550 9549 1 125.010 669.440
9532 9550 9551 1 116.164 669.440
9533 9532 9550 1 114.807 334.720
9533 9541 9542 1 114.843 334.720
9534 9533 9541 1 118.788 669.440
9536 12692 12691 1 109.500 418.400
9536 12692 12693 1 109.500 292.880
9536 12692 12694 1 109.500 292.880
9541 9542 9549 1 124.986 669.440
9542 9549 9550 1 115.117 334.720
9543 9542 9549 1 118.823 669.440
9544 7513 7512 1 109.500 502.080
9553 12586 12585 1 109.500 418.400
9553 12586 12587 1 109.500 292.880
9553 12586 12588 1 109.500 292.880
9558 9559 9566 1 125.237 669.440
9558 9576 9575 1 125.010 669.440
9558 9576 9577 1 116.164 669.440
9559 9558 9576 1 114.807 334.720
9559 9566 9567 1 114.843 334.720
9560 9559 9566 1 118.788 669.440
9561 4465 4464 1 109.500 502.080
9566 9567 9575 1 124.986 669.440
9567 9575 9576 1 115.117 334.720
9568 9567 9575 1 118.823 669.440
9570 11044 11043 1 109.500 418.400
9570 11044 11045 1 109.500 292.880
9570 11044 11046 1 109.500 292.880
9585 9586 9594 1 125.237 669.440
9585 9604 9603 1 125.010 669.440
9585 9604 9605 1 116.164 669.440
9586 9585 9604 1 114.807 334.720
9586 9594 9595 1 114.843 334.720
9587 9586 9594 1 118.788 669.440
9589 11592 11591 1 109.500 418.400
9589 11592 11593 1 109.500 292.880
9589 11592 11594 1 109.500 292.880
9594 9595 9603 1 124.986 669.440
9595 9603 9604 1 115.117 334.720
9596 9595 9603 1 118.823 669.440
9598 11247 11246 1 109.500 418.400
9598 11247 11248 1 109.500 292.880
9598 11247 11249 1 109.500 292.880
9606 1324 1323 1 109.500 502.080
9611 9612 9619 1 125.237 669.440
9611 9628 9627 1 125.010 669.440
9611 9628 9629 1 116.164 669.440
9612 9611 9628 1 114.807 334.720
9612 9619 9620 1 114.843 334.720
9613 9612 9619 1 118.788 669.440
9614 8617 8616 1 109.500 502.080
9619 9620 9627 1 124.986 669.440
9620 9627 9628 1 115.117 334.720
9621 9620 9627 1 118.823 669.440
9622 1684 1683 1 109.500 502.080
9630 535 534 1 109.500 502.080
9635 9636 9643 1 125.237 669.440
9635 9654 9653 1 125.010 669.440
9635 9654 9655 1 116.164 669.440
9636 9635 9654 1 114.807 334.720
9636 9643 9644 1 114.843 334.720
9637 9636 9643 1 118.788 669.440
9638 808 807 1 109.500 502.080
9643 9644 9653 1 124.986 669.440
9644 9653 9654 1 115.117 334.720
9645 9644 9653 1 118.823 669.440
9656 5755 5754 1 109.500 502.080
9661 9662 9669 1 125.237 669.440
9661 9678 9677 1 125.010 669.440
9661 9678 9679 1 116.164 669.440
9662 9661 9678 1 114.807 334.720
9662 9669 9670 1 114.843 334.720
9663 9662 9669 1 118.788 669.440
9664 8414 8413 1 109.500 502.080
9669 9670 9677 1 124.986 669.440
9670 9677 9678 1 115.117 334.720
9671 9670 9677 1 118.823 669.440
9672 9326 9325 1 109.500 502.080
9680 428 427 1 109.500 502.080
9685 9686 9693 1 125.237 669.440
9685 9702 9701 1 125.010 669.440
9685 9702 9703 1 116.164 669.440
9686 9685 9702 1 114.807 334.720
9686 9693 9694 1 114.843 334.720
9687 9686 9693 1 118.788 669.440
9688 1827 1826 1 109.500 502.080
9693 9694 9701 1 124.986 669.440
9694 9701 9702 1 115.117 334.720
9695 9694 9701 1 118.823 669.440
9696 1736 1735 1 109.500 502.080
9704 189 188 1 109.500 502.080
9709 9710 9718 1 125.237 669.440
9709 9727 9726 1 125.010 669.440
9709 9727 9728 1 116.164 669.440
9710 9709 9727 1 114.807 334.720
9710 9718 9719 1 114.843 334.720
9711 9710 9718 1 118.788 669.440
9713 9781 9780 1 109.500 418.400
9713 9781 9782 1 109.500 292.880
9713 9781 9783 1 109.500 292.880
9718 9719 9726 1 124.986 669.440
9719 9726 9727 1 115.117 334.720
9720 9719 9726 1 118.823 669.440
9721 8100 8099 1 109.500 502.080
9729 4108 4107 1 109.500 502.080
9734 9735 9742 1 125.237 669.440
9734 9752 9751 1 125.010 669.440
9734 9752 9753 1 116.164 669.440
9735 9734 9752 1 114.807 334.720
9735 9742 9743 1 114.843 334.720
9736 9735 9742 1 118.788 669.440
9737 888 887 1 109.500 502.080
9742 9743 9751 1 124.986 669.440
9743 9751 9752 1 115.117 334.720
9744 9743 9751 1 118.823 669.440
9746 12626 12625 1 109.500 418.400
9746 12626 12627 1 109.500 292.880
9746 12626 12628 1 109.500 292.880
9754 7916 7915 1 109.500 502.080
9759 9760 9769 1 125.237 669.440
9759 9779 9778 1 125.010 669.440
9759 9779 9780 1 116.164 669.440
9760 9759 9779 1 114.807 334.720
9760 9769 9770 1 114.843 334.720
9761 9760 9769 1 118.788 669.440
9769 9770 9778 1 124.986 669.440
9770 9778 9779 1 115.117 334.720
9771 9770 9778 1 118.823 669.440
9773 9962 9961 1 109.500 418.400
9773 9962 9963 1 109.500 292.880
9773 9962 9964 1 109.500 292.880
9781 9713 9712 1 109.500 502.080
9786 9787 9795 1 125.237 669.440
9786 9806 9805 1 125.010 669.440
9786 9806 9807 1 116.164 669.440
9787 9786 9806 1 114.807 334.720
9787 9795 9796 1 114.843 334.720
9788 9787 9795 1 118.788 669.440
9790 12250 12249 1 109.500 418.400
9790 12250 12251 1 109.500 292.880
9790 12250 12252 1 109.500 292.880
9795 9796 9805 1 124.986 669.440
9796 9805 9806 1 115.117 334.720
9797 9796 9805 1 118.823 669.440
9815 9816 9824 1 125.237 669.440
9815 9834 9833 1 125.010 669.440
9815 9834 9835 1 116.164 669.440
9816 9815 9834 1 114.807 334.720
9816 9824 9825 1 114.843 334.720
9817 9816 9824 1 118.788 669.440
9819 9921 9920 1 109.500 418.400
9819 9921 9922 1 109.500 292.880
9819 9921 9923 1 109.500 292.880
9824 9825 9833 1 124.986 669.440
9825 9833 9834 1 115.117 334.720
9826 9825 9833 1 118.823 669.440
9828 11898 11897 1 109.500 418.400
9828 11898 11899 1 109.500 292.880
9828 11898 11900 1 109.500 292.880
9836 1145 1144 1 109.500 502.080
9841 9842 9850 1 125.237 669.440
9841 9859 9858 1 125.010 669.440
9841 9859 9860 1 116.164 669.440
9842 9841 9859 1 114.807 334.720
9842 9850 9851 1 114.843 334.720
9843 9842 9850 1 118.788 669.440
9845 12562 12561 1 109.500 418.400
9845 12562 12563 1 109.500 292.880
9845 12562 12564 1 109.500 292.880
9850 9851 9858 1 124.986 669.440
9851 9858 9859 1 115.117 334.720
9852 9851 9858 1 118.823 669.440
9853 1036 1035 1 109.500 502.080
9862 11288 11287 1 109.500 418.400
9862 11288 11289 1 109.500 292.880
9862 11288 11290 1 109.500 292.880
9867 9868 9875 1 125.237 669.440
9867 9886 9885 1 125.010 669.440
9867 9886 9887 1 116.164 669.440
9868 9867 9886 1 114.807 334.720
9868 9875 9876 1 114.843 334.720
9869 9868 9875 1 118.788 669.440
9870 2776 2775 1 109.500 502.080
9875 9876 9885 1 124.986 669.440
9876 9885 9886 1 115.117 334.720
9877 9876 9885 1 118.823 669.440
9888 6893 6892 1 109.500 502.080
9893 9894 9901 1 125.237 669.440
9893 9910 9909 1 125.010 669.440
9893 9910 9911 1 116.164 669.440
9894 9893 9910 1 114.807 334.720
9894 9901 9902 1 114.843 334.720
9895 9894 9901 1 118.788 669.440
9896 2229 2228 1 109.500 502.080
9901 9902 9909 1 124.986 669.440
9902 9909 9910 1 115.117 334.720
9903 9902 9909 1 118.823 669.440
9904 5162 5161 1 109.500 502.080
9913 12224 12223 1 109.500 418.400
9913 12224 12225 1 109.500 292.880
9913 12224 12226 1 109.500 292.880
9918 9919 9926 1 125.237 669.440
9918 9935 9934 1 125.010 669.440
9918 9935 9936 1 116.164 669.440
9919 9918 9935 1 114.807 334.720
9919 9926 9927 1 114.843 334.720
9920 9919 9926 1 118.788 669.440
9921 9819 9818 1 109.500 502.080
9926 9927 9934 1 124.986 669.440
9927 9934 9935 1 115.117 334.720
9928 9927 9934 1 118.823 669.440
9929 8751 8750 1 109.500 502.080
9938 12828 12827 1 109.500 418.400
9938 12828 12829 1 109.500 292.880
9938 12828 12830 1 109.500 292.880
9943 9944 9951 1 125.237 669.440
9943 9960 9959 1 125.010 669.440
9943 9960 9961 1 116.164 669.440
9944 9943 9960 1 114.807 334.720
9944 9951 9952 1 114.843 334.720
9945 9944 9951 1 118.788 669.440
9946 7556 7555 1 109.500 502.080
9951 9952 9959 1 124.986 669.440
9952 9959 9960 1 115.117 334.720
9953 9952 9959 1 118.823 669.440
9954 1342 1341 1 109.500 502.080
9962 9773 9772 1 109.500 502.080
9967 9968 9975 1 125.237 669.440
9967 9984 9983 1 125.010 669.440
9967 9984 9985 1 116.164 669.440
9968 9967 9984 1 114.807 334.720
9968 9975 9976 1 114.843 334.720
9969 9968 9975 1 118.788 669.440
9970 9317 9316 1 109.500 502.080
9975 9976 9983 1 124.986 669.440
9976 9983 9984 1 115.117 334.720
9977 9976 9983 1 118.823 669.440
9978 5018 5017 1 109.500 502.080
9987 10860 10859 1 109.500 418.400
9987 10860 10861 1 109.500 292.880
9987 10860 10862 1 109.500 292.880
9992 9993 10000 1 125.237 669.440
9992 10010 10009 1 125.010 669.440
9992 10010 10011 1 116.164 669.440
9993 9992 10010 1 114.807 334.720
9993 10000 10001 1 114.843 334.720
9994 9993 10000 1 118.788 669.440
9995 6457 6456 1 109.500 502.080
10000 10001 10009 1 124.986 669.440
10001 10009 10010 1 115.117 334.720
10002 10001 10009 1 118.823 669.440
10004 11368 11367 1 109.500 418.400
10004 11368 11369 1 109.500 292.880
10004 11368 11370 1 109.500 292.880
10012 9484 9483 1 109.500 502.080
10017 10018 10025 1 125.237 669.440
10017 10034 10033 1 125.010 669.440
10017 10034 10035 1 116.164 669.440
10018 10017 10034 1 114.807 334.720
10018 10025 10026 1 114.843 334.720
10019 10018 10025 1 118.788 669.440
10020 1594 1593 1 109.500 502.080
10025 10026 10033 1 124.986 669.440
10026 10033 10034 1 115.117 334.720
10027 10026 10033 1 118.823 669.440
10028 2155 2154 1 109.500 502.080
10037 12846 12845 1 109.500 418.400
10037 12846 12847 1 109.500 292.880
10037 12846 12848 1 109.500 292.880
10042 10043 10050 1 125.237 669.440
10042 10059 10058 1 125.010 669.440
10042 10059 10060 1 116.164 669.440
10043 10042 10059 1 114.807 334.720
10043 10050 10051 1 114.843 334.720
10044 10043 10050 1 118.788 669.440
10045 3958 3957 1 109.500 502.080
10050 10051 10058 1 124.986 669.440
10051 10058 10059 1 115.117 334.720
10052 10051 10058 1 118.823 669.440
10053 3647 3646 1 109.500 502.080
10061 6704 6703 1 109.500 502.080
10066 10067 10075 1 125.237 669.440
10066 10084 10083 1 125.010 669.440
10066 10084 10085 1 116.164 669.440
10067 10066 10084 1 114.807 334.720
10067 10075 10076 1 114.843 334.720
10068 10067 10075 1 118.788 669.440
10070 10175 10174 1 109.500 418.400
10070 10175 10176 1 109.500 292.880
10070 10175 10177 1 109.500 292.880
10075 10076 10083 1 124.986 669.440
10076 10083 10084 1 115.117 334.720
10077 10076 10083 1 118.823 669.440
10078 6354 6353 1 109.500 502.080
10086 8957 8956 1 109.500 502.080
10091 10092 10099 1 125.237 669.440
10091 10108 10107 1 125.010 669.440
10091 10108 10109 1 116.164 669.440
10092 10091 10108 1 114.807 334.720
10092 10099 10100 1 114.843 334.720
10093 10092 10099 1 118.788 669.440
10094 8371 8370 1 109.500 502.080
10099 10100 10107 1 124.986 669.440
10100 10107 10108 1 115.117 334.720
10101 10100 10107 1 118.823 669.440
10102 8280 8279 1 109.500 502.080
10110 5225 5224 1 109.500 502.080
10115 10116 10124 1 125.237 669.440
10115 10133 10132 1 125.010 669.440
10115 10133 10134 1 116.164 669.440
10116 10115 10133 1 114.807 334.720
10116 10124 10125 1 114.843 334.720
10117 10116 10124 1 118.788 669.440
10119 10651 10650 1 109.500 418.400
10119 10651 10652 1 109.500 292.880
10119 10651 10653 1 109.500 292.880
10124 10125 10132 1 124.986 669.440
10125 10132 10133 1 115.117 334.720
10126 10125 10132 1 118.823 669.440
10127 7220 7219 1 109.500 502.080
10135 4620 4619 1 109.500 502.080
10140 10141 10148 1 125.237 669.440
10140 10157 10156 1 125.010 669.440
10140 10157 10158 1 116.164 669.440
10141 10140 10157 1 114.807 334.720
10141 10148 10149 1 114.843 334.720
10142 10141 10148 1 118.788 669.440
10143 2068 2067 1 109.500 502.080
10148 10149 10156 1 124.986 669.440
10149 10156 10157 1 115.117 334.720
10150 10149 10156 1 118.823 669.440
10151 6153 6152 1 109.500 502.080
10159 2256 2255 1 109.500 502.080
10164 10165 10172 1 125.237 669.440
10164 10181 10180 1 125.010 669.440
10164 10181 10182 1 116.164 669.440
10165 10164 10181 1 114.807 334.720
10165 10172 10173 1 114.843 334.720
10166 10165 10172 1 118.788 669.440
10167 1505 1504 1 109.500 502.080
10172 10173 10180 1 124.986 669.440
10173 10180 10181 1 115.117 334.720
10174 10173 10180 1 118.823 669.440
10175 10070 10069 1 109.500 502.080
10183 8966 8965 1 109.500 502.080
10188 10189 10196 1 125.237 669.440
10188 10207 10206 1 125.010 669.440
10188 10207 10208 1 116.164 669.440
10189 10188 10207 1 114.807 334.720
10189 10196 10197 1 114.843 334.720
10190 10189 10196 1 118.788 669.440
10191 410 409 1 109.500 502.080
10196 10197 10206 1 124.986 669.440
10197 10206 10207 1 115.117 334.720
10198 10197 10206 1 118.823 669.440
10209 7452 7451 1 109.500 502.080
10214 10215 10222 1 125.237 669.440
10214 10233 10232 1 125.010 669.440
10214 10233 10234 1 116.164 669.440
10215 10214 10233 1 114.807 334.720
10215 10222 10223 1 114.843 334.720
10216 10215 10222 1 118.788 669.440
10217 9443 9442 1 109.500 502.080
10222 10223 10232 1 124.986 669.440
10223 10232 10233 1 115.117 334.720
10224 10223 10232 1 118.823 669.440
10235 8482 8481 1 109.500 502.080
10240 10241 10248 1 125.237 669.440
10240 10258 10257 1 125.010 669.440
10240 10258 10259 1 116.164 669.440
10241 10240 10258 1 114.807 334.720
10241 10248 10249 1 114.843 334.720
10242 10241 10248 1 118.788 669.440
10243 835 834 1 109.500 502.080
10248 10249 10257 1 124.986 669.440
10249 10257 10258 1 115.117 334.720
10250 10249 10257 1 118.823 669.440
10252 10549 10548 1 109.500 418.400
10252 10549 10550 1 109.500 292.880
10252 10549 10551 1 109.500 292.880
10260 5909 5908 1 109.500 502.080
10265 10266 10273 1 125.237 669.440
10265 10282 10281 1 125.010 669.440
10265 10282 10283 1 116.164 669.440
10266 10265 10282 1 114.807 334.720
10266 10273 10274 1 114.843 334.720
10267 10266 10273 1 118.788 669.440
10268 2301 2300 1 109.500 502.080
10273 10274 10281 1 124.986 669.440
10274 10281 10282 1 115.117 334.720
10275 10274 10281 1 118.823 669.440
10276 2713 2712 1 109.500 502.080
10284 2310 2309 1 109.500 502.080
10289 10290 10297 1 125.237 669.440
10289 10306 10305 1 125.010 669.440
10289 10306 10307 1 116.164 669.440
10290 10289 10306 1 114.807 334.720
10290 10297 10298 1 114.843 334.720
10291 10290 10297 1 118.788 669.440
10292 1576 1575 1 109.500 502.080
10297 10298 10305 1 124.986 669.440
10298 10305 10306 1 115.117 334.720
10299 10298 10305 1 118.823 669.440
10300 2516 2515 1 109.500 502.080
10309 12033 12032 1 109.500 418.400
10309 12033 12034 1 109.500 292.880
10309 12033 12035 1 109.500 292.880
10314 10315 10322 1 125.237 669.440
10314 10331 10330 1 125.010 669.440
10314 10331 10332 1 116.164 669.440
10315 10314 10331 1 114.807 334.720
10315 10322 10323 1 114.843 334.720
10316 10315 10322 1 118.788 669.440
10317 5927 5926 1 109.500 502.080
10322 10323 10330 1 124.986 669.440
10323 10330 10331 1 115.117 334.720
10324 10323 10330 1 118.823 669.440
10325 2128 2127 1 109.500 502.080
10333 7002 7001 1 109.500 502.080
10338 10339 10346 1 125.237 669.440
10338 10355 10354 1 125.010 669.440
10338 10355 10356 1 116.164 669.440
10339 10338 10355 1 114.807 334.720
10339 10346 10347 1 114.843 334.720
10340 10339 10346 1 118.788 669.440
10341 5573 5572 1 109.500 502.080
10346 10347 10354 1 124.986 669.440
10347 10354 10355 1 115.117 334.720
10348 10347 10354 1 118.823 669.440
10349 5978 5977 1 109.500 502.080
10358 10484 10483 1 109.500 418.400
10358 10484 10485 1 109.500 292.880
10358 10484 10486 1 109.500 292.880
10363 10364 10371 1 125.237 669.440
10363 10380 10379 1 125.010 669.440
10363 10380 10381 1 116.164 669.440
10364 10363 10380 1 114.807 334.720
10364 10371 10372 1 114.843 334.720
10365 10364 10371 1 118.788 669.440
10366 1630 1629 1 109.500 502.080
10371 10372 10379 1 124.986 669.440
10372 10379 10380 1 115.117 334.720
10373 10372 10379 1 118.823 669.440
10374 3124 3123 1 109.500 502.080
10383 12362 12361 1 109.500 418.400
10383 12362 12363 1 109.500 292.880
10383 12362 12364 1 109.500 292.880
10388 10389 10396 1 125.237 669.440
10388 10407 10406 1 125.010 669.440
10388 10407 10408 1 116.164 669.440
10389 10388 10407 1 114.807 334.720
10389 10396 10397 1 114.843 334.720
10390 10389 10396 1 118.788 669.440
10391 5684 5683 1 109.500 502.080
10396 10397 10406 1 124.986 669.440
10397 10406 10407 1 115.117 334.720
10398 10397 10406 1 118.823 669.440
10409 6118 6117 1 109.500 502.080
10414 10415 10422 1 125.237 669.440
10414 10431 10430 1 125.010 669.440
10414 10431 10432 1 116.164 669.440
10415 10414 10431 1 114.807 334.720
10415 10422 10423 1 114.843 334.720
10416 10415 10422 1 118.788 669.440
10417 2014 2013 1 109.500 502.080
10422 10423 10430 1 124.986 669.440
10423 10430 10431 1 115.117 334.720
10424 10423 10430 1 118.823 669.440
10425 4791 4790 1 109.500 502.080
10434 10826 10825 1 109.500 418.400
10434 10826 10827 1 109.500 292.880
10434 10826 10828 1 109.500 292.880
10439 10440 10449 1 125.237 669.440
10439 10458 10457 1 125.010 669.440
10439 10458 10459 1 116.164 669.440
10440 10439 10458 1 114.807 334.720
10440 10449 10450 1 114.843 334.720
10441 10440 10449 1 118.788 669.440
10449 10450 10457 1 124.986 669.440
10450 10457 10458 1 115.117 334.720
10451 10450 10457 1 118.823 669.440
10452 9242 9241 1 109.500 502.080
10460 4341 4340 1 109.500 502.080
10465 10466 10473 1 125.237 669.440
10465 10482 10481 1 125.010 669.440
10465 10482 10483 1 116.164 669.440
10466 10465 10482 1 114.807 334.720
10466 10473 10474 1 114.843 334.720
10467 10466 10473 1 118.788 669.440
10468 2373 2372 1 109.500 502.080
10473 10474 10481 1 124.986 669.440
10474 10481 10482 1 115.117 334.720
10475 10474 10481 1 118.823 669.440
10476 8845 8844 1 109.500 502.080
10484 10358 10357 1 109.500 502.080
10489 10490 10497 1 125.237 669.440
10489 10506 10505 1 125.010 669.440
10489 10506 10507 1 116.164 669.440
10490 10489 10506 1 114.807 334.720
10490 10497 10498 1 114.843 334.720
10491 10490 10497 1 118.788 669.440
10492 4666 4665 1 109.500 502.080
10497 10498 10505 1 124.986 669.440
10498 10505 10506 1 115.117 334.720
10499 10498 10505 1 118.823 669.440
10500 4559 4558 1 109.500 502.080
10508 153 152 1 109.500 502.080
10513 10514 10521 1 125.237 669.440
10513 10531 10530 1 125.010 669.440
10513 10531 10532 1 116.164 669.440
10514 10513 10531 1 114.807 334.720
10514 10521 10522 1 114.843 334.720
10515 10514 10521 1 118.788 669.440
10516 8608 8607 1 109.500 502.080
10521 10522 10530 1 124.986 669.440
10522 10530 10531 1 115.117 334.720
10523 10522 10530 1 118.823 669.440
10525 10625 10624 1 109.500 418.400
10525 10625 10626 1 109.500 292.880
10525 10625 10627 1 109.500 292.880
10533 4447 4446 1 109.500 502.080
10538 10539 10546 1 125.237 669.440
10538 10555 10554 1 125.010 669.440
10538 10555 10556 1 116.164 669.440
10539 10538 10555 1 114.807 334.720
10539 10546 10547 1 114.843 334.720
10540 10539 10546 1 118.788 669.440
10541 6235 6234 1 109.500 502.080
10546 10547 10554 1 124.986 669.440
10547 10554 10555 1 115.117 334.720
10548 10547 10554 1 118.823 669.440
10549 10252 10251 1 109.500 502.080
10564 10565 10574 1 125.237 669.440
10564 10583 10582 1 125.010 669.440
10564 10583 10584 1 116.164 669.440
10565 10564 10583 1 114.807 334.720
10565 10574 10575 1 114.843 334.720
10566 10565 10574 1 118.788 669.440
10574 10575 10582 1 124.986 669.440
10575 10582 10583 1 115.117 334.720
10576 10575 10582 1 118.823 669.440
10577 6512 6511 1 109.500 502.080
10585 7704 7703 1 109.500 502.080
10590 10591 10598 1 125.237 669.440
10590 10607 10606 1 125.010 669.440
10590 10607 10608 1 116.164 669.440
10591 10590 10607 1 114.807 334.720
10591 10598 10599 1 114.843 334.720
10592 10591 10598 1 118.788 669.440
10593 4684 4683 1 109.500 502.080
10598 10599 10606 1 124.986 669.440
10599 10606 10607 1 115.117 334.720
10600 10599 10606 1 118.823 669.440
10601 3133 3132 1 109.500 502.080
10609 6596 6595 1 109.500 502.080
10614 10615 10622 1 125.237 669.440
10614 10631 10630 1 125.010 669.440
10614 10631 10632 1 116.164 669.440
10615 10614 10631 1 114.807 334.720
10615 10622 10623 1 114.843 334.720
10616 10615 10622 1 118.788 669.440
10617 5808 5807 1 109.500 502.080
10622 10623 10630 1 124.986 669.440
10623 10630 10631 1 115.117 334.720
10624 10623 10630 1 118.823 669.440
10625 10525 10524 1 109.500 502.080
10640 10641 10648 1 125.237 669.440
10640 10657 10656 1 125.010 669.440
10640 10657 10658 1 116.164 669.440
10641 10640 10657 1 114.807 334.720
10641 10648 10649 1 114.843 334.720
10642 10641 10648 1 118.788 669.440
10643 1667 1666 1 109.500 502.080
10648 10649 10656 1 124.986 669.440
10649 10656 10657 1 115.117 334.720
10650 10649 10656 1 118.823 669.440
10651 10119 10118 1 109.500 502.080
10659 7229 7228 1 109.500 502.080
10664 10665 10672 1 125.237 669.440
10664 10682 10681 1 125.010 669.440
10664 10682 10683 1 116.164 669.440
10665 10664 10682 1 114.807 334.720
10665 10672 10673 1 114.843 334.720
10666 10665 10672 1 118.788 669.440
10667 4456 4455 1 109.500 502.080
10672 10673 10681 1 124.986 669.440
10673 10681 10682 1 115.117 334.720
10674 10673 10681 1 118.823 669.440
10676 10877 10876 1 109.500 418.400
10676 10877 10878 1 109.500 292.880
10676 10877 10879 1 109.500 292.880
10691 10692 10700 1 125.237 669.440
10691 10709 10708 1 125.010 669.440
10691 10709 10710 1 116.164 669.440
10692 10691 10709 1 114.807 334.720
10692 10700 10701 1 114.843 334.720
10693 10692 10700 1 118.788 669.440
10695 11483 11482 1 109.500 418.400
10695 11483 11484 1 109.500 292.880
10695 11483 11485 1 109.500 292.880
10700 10701 10708 1 124.986 669.440
10701 10708 10709 1 115.117 334.720
10702 10701 10708 1 118.823 669.440
10703 162 161 1 109.500 502.080
10711 8532 8531 1 109.500 502.080
10716 10717 10724 1 125.237 669.440
10716 10734 10733 1 125.010 669.440
10716 10734 10735 1 116.164 669.440
10717 10716 10734 1 114.807 334.720
10717 10724 10725 1 114.843 334.720
10718 10717 10724 1 118.788 669.440
10719 1063 1062 1 109.500 502.080
10724 10725 10733 1 124.986 669.440
10725 10733 10734 1 115.117 334.720
10726 10725 10733 1 118.823 669.440
10728 11409 11408 1 109.500 418.400
10728 11409 11410 1 109.500 292.880
10728 11409 11411 1 109.500 292.880
10736 6977 6976 1 109.500 502.080
10741 10742 10749 1 125.237 669.440
10741 10758 10757 1 125.010 669.440
10741 10758 10759 1 116.164 669.440
10742 10741 10758 1 114.807 334.720
10742 10749 10750 1 114.843 334.720
10743 10742 10749 1 118.788 669.440
10744 7109 7108 1 109.500 502.080
10749 10750 10757 1 124.986 669.440
10750 10757 10758 1 115.117 334.720
10751 10750 10757 1 118.823 669.440
10752 2994 2993 1 109.500 502.080
10760 6503 6502 1 109.500 502.080
10765 10766 10773 1 125.237 669.440
10765 10782 10781 1 125.010 669.440
10765 10782 10783 1 116.164 669.440
10766 10765 10782 1 114.807 334.720
10766 10773 10774 1 114.843 334.720
10767 10766 10773 1 118.788 669.440
10768 4648 4647 1 109.500 502.080
10773 10774 10781 1 124.986 669.440
10774 10781 10782 1 115.117 334.720
10775 10774 10781 1 118.823 669.440
10776 5242 5241 1 109.500 502.080
10784 3236 3235 1 109.500 502.080
10789 10790 10797 1 125.237 669.440
10789 10806 10805 1 125.010 669.440
10789 10806 10807 1 116.164 669.440
10790 10789 10806 1 114.807 334.720
10790 10797 10798 1 114.843 334.720
10791 10790 10797 1 118.788 669.440
10792 2409 2408 1 109.500 502.080
10797 10798 10805 1 124.986 669.440
10798 10805 10806 1 115.117 334.720
10799 10798 10805 1 118.823 669.440
10800 773 772 1 109.500 502.080
10809 12748 12747 1 109.500 418.400
10809 12748 12749 1 109.500 292.880
10809 12748 12750 1 109.500 292.880
10814 10815 10823 1 125.237 669.440
10814 10832 10831 1 125.010 669.440
10814 10832 10833 1 116.164 669.440
10815 10814 10832 1 114.807 334.720
10815 10823 10824 1 114.843 334.720
10816 10815 10823 1 118.788 669.440
10818 10852 10851 1 109.500 418.400
10818 10852 10853 1 109.500 292.880
10818 10852 10854 1 109.500 292.880
10823 10824 10831 1 124.986 669.440
10824 10831 10832 1 115.117 334.720
10825 10824 10831 1 118.823 669.440
10826 10434 10433 1 109.500 502.080
10834 5035 5034 1 109.500 502.080
10839 10840 10849 1 125.237 669.440
10839 10858 10857 1 125.010 669.440
10839 10858 10859 1 116.164 669.440
10840 10839 10858 1 114.807 334.720
10840 10849 10850 1 114.843 334.720
10841 10840 10849 1 118.788 669.440
10849 10850 10857 1 124.986 669.440
10850 10857 10858 1 115.117 334.720
10851 10850 10857 1 118.823 669.440
10852 10818 10817 1 109.500 502.080
10860 9987 9986 1 109.500 502.080
10865 10866 10874 1 125.237 669.440
10865 10883 10882 1 125.010 669.440
10865 10883 10884 1 116.164 669.440
10866 10865 10883 1 114.807 334.720
10866 10874 10875 1 114.843 334.720
10867 10866 10874 1 118.788 669.440
10869 12812 12811 1 109.500 418.400
10869 12812 12813 1 109.500 292.880
10869 12812 12814 1 109.500 292.880
10874 10875 10882 1 124.986 669.440
10875 10882 10883 1 115.117 334.720
10876 10875 10882 1 118.823 669.440
10877 10676 10675 1 109.500 502.080
10892 10893 10900 1 125.237 669.440
10892 10909 10908 1 125.010 669.440
10892 10909 10910 1 116.164 669.440
10893 10892 10909 1 114.807 334.720
10893 10900 10901 1 114.843 334.720
10894 10893 10900 1 118.788 669.440
10895 8109 8108 1 109.500 502.080
10900 10901 10908 1 124.986 669.440
10901 10908 10909 1 115.117 334.720
10902 10901 10908 1 118.823 669.440
10903 2274 2273 1 109.500 502.080
10911 3807 3806 1 109.500 502.080
10916 10917 10924 1 125.237 669.440
10916 10933 10932 1 125.010 669.440
10916 10933 10934 1 116.164 669.440
10917 10916 10933 1 114.807 334.720
10917 10924 10925 1 114.843 334.720
10918 10917 10924 1 118.788 669.440
10919 7816 7815 1 109.500 502.080
10924 10925 10932 1 124.986 669.440
10925 10932 10933 1 115.117 334.720
10926 10925 10932 1 118.823 669.440
10927 1478 1477 1 109.500 502.080
10935 8862 8861 1 109.500 502.080
10940 10941 10949 1 125.237 669.440
10940 10960 10959 1 125.010 669.440
10940 10960 10961 1 116.164 669.440
10941 10940 10960 1 114.807 334.720
10941 10949 10950 1 114.843 334.720
10942 10941 10949 1 118.788 669.440
10944 11192 11191 1 109.500 418.400
10944 11192 11193 1 109.500 292.880
10944 11192 11194 1 109.500 292.880
10949 10950 10959 1 124.986 669.440
10950 10959 10960 1 115.117 334.720
10951 10950 10959 1 118.823 669.440
10962 8575 8574 1 109.500 502.080
10967 10968 10975 1 125.237 669.440
10967 10984 10983 1 125.010 669.440
10967 10984 10985 1 116.164 669.440
10968 10967 10984 1 114.807 334.720
10968 10975 10976 1 114.843 334.720
10969 10968 10975 1 118.788 669.440
10970 590 589 1 109.500 502.080
10975 10976 10983 1 124.986 669.440
10976 10983 10984 1 115.117 334.720
10977 10976 10983 1 118.823 669.440
10978 4534 4533 1 109.500 502.080
10986 7100 7099 1 109.500 502.080
10991 10992 10999 1 125.237 669.440
10991 11008 11007 1 125.010 669.440
10991 11008 11009 1 116.164 669.440
10992 10991 11008 1 114.807 334.720
10992 10999 11000 1 114.843 334.720
10993 10992 10999 1 118.788 669.440
10994 5782 5781 1 109.500 502.080
10999 11000 11007 1 124.986 669.440
11000 11007 11008 1 115.117 334.720
11001 11000 11007 1 118.823 669.440
11002 2173 2172 1 109.500 502.080
11011 12618 12617 1 109.500 418.400
11011 12618 12619 1 109.500 292.880
11011 12618 12620 1 109.500 292.880
11016 11017 11024 1 125.237 669.440
11016 11034 11033 1 125.010 669.440
11016 11034 11035 1 116.164 669.440
11017 11016 11034 1 114.807 334.720
11017 11024 11025 1 114.843 334.720
11018 11017 11024 1 118.788 669.440
11019 7539 7538 1 109.500 502.080
11024 11025 11033 1 124.986 669.440
11025 11033 11034 1 115.117 334.720
11026 11025 11033 1 118.823 669.440
11028 12155 12154 1 109.500 418.400
11028 12155 12156 1 109.500 292.880
11028 12155 12157 1 109.500 292.880
11036 5079 5078 1 109.500 502.080
11041 11042 11049 1 125.237 669.440
11041 11058 11057 1 125.010 669.440
11041 11058 11059 1 116.164 669.440
11042 11041 11058 1 114.807 334.720
11042 11049 11050 1 114.843 334.720
11043 11042 11049 1 118.788 669.440
11044 9570 9569 1 109.500 502.080
11049 11050 11057 1 124.986 669.440
11050 11057 11058 1 115.117 334.720
11051 11050 11057 1 118.823 669.440
11052 1782 1781 1 109.500 502.080
11060 4483 4482 1 109.500 502.080
11065 11066 11073 1 125.237 669.440
11065 11082 11081 1 125.010 669.440
11065 11082 11083 1 116.164 669.440
11066 11065 11082 1 114.807 334.720
11066 11073 11074 1 114.843 334.720
11067 11066 11073 1 118.788 669.440
11068 5320 5319 1 109.500 502.080
11073 11074 11081 1 124.986 669.440
11074 11081 11082 1 115.117 334.720
11075 11074 11081 1 118.823 669.440
11076 6824 6823 1 109.500 502.080
11084 6216 6215 1 109.500 502.080
11089 11090 11097 1 125.237 669.440
11089 11106 11105 1 125.010 669.440
11089 11106 11107 1 116.164 669.440
11090 11089 11106 1 114.807 334.720
11090 11097 11098 1 114.843 334.720
11091 11090 11097 1 118.788 669.440
11092 572 571 1 109.500 502.080
11097 11098 11105 1 124.986 669.440
11098 11105 11106 1 115.117 334.720
11099 11098 11105 1 118.823 669.440
11100 7791 7790 1 109.500 502.080
11108 8541 8540 1 109.500 502.080
11113 11114 11121 1 125.237 669.440
11113 11130 11129 1 125.010 669.440
11113 11130 11131 1 116.164 669.440
11114 11113 11130 1 114.807 334.720
11114 11121 11122 1 114.843 334.720
11115 11114 11121 1 118.788 669.440
11116 7695 7694 1 109.500 502.080
11121 11122 11129 1 124.986 669.440
11122 11129 11130 1 115.117 334.720
11123 11122 11129 1 118.823 669.440
11124 3850 3849 1 109.500 502.080
11133 11141 11140 1 109.500 418.400
11133 11141 11142 1 109.500 292.880
11133 11141 11143 1 109.500 292.880
11138 11139 11146 1 125.237 669.440
11138 11156 11155 1 125.010 669.440
11138 11156 11157 1 116.164 669.440
11139 11138 11156 1 114.807 334.720
11139 11146 11147 1 114.843 334.720
11140 11139 11146 1 118.788 669.440
11141 11133 11132 1 109.500 502.080
11146 11147 11155 1 124.986 669.440
11147 11155 11156 1 115.117 334.720
11148 11147 11155 1 118.823 669.440
11150 12460 12459 1 109.500 418.400
11150 12460 12461 1 109.500 292.880
11150 12460 12462 1 109.500 292.880
11158 6272 6271 1 109.500 502.080
11163 11164 11171 1 125.237 669.440
11163 11182 11181 1 125.010 669.440
11163 11182 11183 1 116.164 669.440
11164 11163 11182 1 114.807 334.720
11164 11171 11172 1 114.843 334.720
11165 11164 11171 1 118.788 669.440
11166 961 960 1 109.500 502.080
11171 11172 11181 1 124.986 669.440
11172 11181 11182 1 115.117 334.720
11173 11172 11181 1 118.823 669.440
11184 7979 7978 1 109.500 502.080
11189 11190 11197 1 125.237 669.440
11189 11208 11207 1 125.010 669.440
11189 11208 11209 1 116.164 669.440
11190 11189 11208 1 114.807 334.720
11190 11197 11198 1 114.843 334.720
11191 11190 11197 1 118.788 669.440
11192 10944 10943 1 109.500 502.080
11197 11198 11207 1 124.986 669.440
11198 11207 11208 1 115.117 334.720
11199 11198 11207 1 118.823 669.440
11217 11218 11225 1 125.237 669.440
11217 11235 11234 1 125.010 669.440
11217 11235 11236 1 116.164 669.440
11218 11217 11235 1 114.807 334.720
11218 11225 11226 1 114.843 334.720
11219 11218 11225 1 118.788 669.440
11220 2346 2345 1 109.500 502.080
11225 11226 11234 1 124.986 669.440
11226 11234 11235 1 115.117 334.720
11227 11226 11234 1 118.823 669.440
11229 12658 12657 1 109.500 418.400
11229 12658 12659 1 109.500 292.880
11229 12658 12660 1 109.500 292.880
11244 11245 11252 1 125.237 669.440
11244 11261 11260 1 125.010 669.440
11244 11261 11262 1 116.164 669.440
11245 11244 11261 1 114.807 334.720
11245 11252 11253 1 114.843 334.720
11246 11245 11252 1 118.788 669.440
11247 9598 9597 1 109.500 502.080
11252 11253 11260 1 124.986 669.440
11253 11260 11261 1 115.117 334.720
11254 11253 11260 1 118.823 669.440
11255 7583 7582 1 109.500 502.080
11263 7461 7460 1 109.500 502.080
11268 11269 11276 1 125.237 669.440
11268 11286 11285 1 125.010 669.440
11268 11286 11287 1 116.164 669.440
11269 11268 11286 1 114.807 334.720
11269 11276 11277 1 114.843 334.720
11270 11269 11276 1 118.788 669.440
11271 1027 1026 1 109.500 502.080
11276 11277 11285 1 124.986 669.440
11277 11285 11286 1 115.117 334.720
11278 11277 11285 1 118.823 669.440
11280 12428 12427 1 109.500 418.400
11280 12428 12429 1 109.500 292.880
11280 12428 12430 1 109.500 292.880
11288 9862 9861 1 109.500 502.080
11293 11294 11301 1 125.237 669.440
11293 11310 11309 1 125.010 669.440
11293 11310 11311 1 116.164 669.440
11294 11293 11310 1 114.807 334.720
11294 11301 11302 1 114.843 334.720
11295 11294 11301 1 118.788 669.440
11296 7126 7125 1 109.500 502.080
11301 11302 11309 1 124.986 669.440
11302 11309 11310 1 115.117 334.720
11303 11302 11309 1 118.823 669.440
11304 3762 3761 1 109.500 502.080
11312 8033 8032 1 109.500 502.080
11317 11318 11325 1 125.237 669.440
11317 11334 11333 1 125.010 669.440
11317 11334 11335 1 116.164 669.440
11318 11317 11334 1 114.807 334.720
11318 11325 11326 1 114.843 334.720
11319 11318 11325 1 118.788 669.440
11320 6398 6397 1 109.500 502.080
11325 11326 11333 1 124.986 669.440
11326 11333 11334 1 115.117 334.720
11327 11326 11333 1 118.823 669.440
11328 9351 9350 1 109.500 502.080
11336 5485 5484 1 109.500 502.080
11341 11342 11349 1 125.237 669.440
11341 11358 11357 1 125.010 669.440
11341 11358 11359 1 116.164 669.440
11342 11341 11358 1 114.807 334.720
11342 11349 11350 1 114.843 334.720
11343 11342 11349 1 118.788 669.440
11344 5441 5440 1 109.500 502.080
11349 11350 11357 1 124.986 669.440
11350 11357 11358 1 115.117 334.720
11351 11350 11357 1 118.823 669.440
11352 4701 4700 1 109.500 502.080
11360 5764 5763 1 109.500 502.080
11365 11366 11373 1 125.237 669.440
11365 11382 11381 1 125.010 669.440
11365 11382 11383 1 116.164 669.440
11366 11365 11382 1 114.807 334.720
11366 11373 11374 1 114.843 334.720
11367 11366 11373 1 118.788 669.440
11368 10004 10003 1 109.500 502.080
11373 11374 11381 1 124.986 669.440
11374 11381 11382 1 115.117 334.720
11375 11374 11381 1 118.823 669.440
11376 1315 1314 1 109.500 502.080
11384 3401 3400 1 109.500 502.080
11389 11390 11397 1 125.237 669.440
11389 11407 11406 1 125.010 669.440
11389 11407 11408 1 116.164 669.440
11390 11389 11407 1 114.807 334.720
11390 11397 11398 1 114.843 334.720
11391 11390 11397 1 118.788 669.440
11392 3859 3858 1 109.500 502.080
11397 11398 11406 1 124.986 669.440
11398 11406 11407 1 115.117 334.720
11399 11398 11406 1 118.823 669.440
11401 11841 11840 1 109.500 418.400
11401 11841 11842 1 109.500 292.880
11401 11841 11843 1 109.500 292.880
11409 10728 10727 1 109.500 502.080
11414 11415 11422 1 125.237 669.440
11414 11431 11430 1 125.010 669.440
11414 11431 11432 1 116.164 669.440
11415 11414 11431 1 114.807 334.720
11415 11422 11423 1 114.843 334.720
11416 11415 11422 1 118.788 669.440
11417 6101 6100 1 109.500 502.080
11422 11423 11430 1 124.986 669.440
11423 11430 11431 1 115.117 334.720
11424 11423 11430 1 118.823 669.440
11425 636 635 1 109.500 502.080
11433 6345 6344 1 109.500 502.080
11438 11439 11446 1 125.237 669.440
11438 11455 11454 1 125.010 669.440
11438 11455 11456 1 116.164 669.440
11439 11438 11455 1 114.807 334.720
11439 11446 11447 1 114.843 334.720
11440 11439 11446 1 118.788 669.440
11441 8820 8819 1 109.500 502.080
11446 11447 11454 1 124.986 669.440
11447 11454 11455 1 115.117 334.720
11448 11447 11454 1 118.823 669.440
11449 4603 4602 1 109.500 502.080
11457 6083 6082 1 109.500 502.080
11462 11463 11470 1 125.237 669.440
11462 11481 11480 1 125.010 669.440
11462 11481 11482 1 116.164 669.440
11463 11462 11481 1 114.807 334.720
11463 11470 11471 1 114.843 334.720
11464 11463 11470 1 118.788 669.440
11465 6721 6720 1 109.500 502.080
11470 11471 11480 1 124.986 669.440
11471 11480 11481 1 115.117 334.720
11472 11471 11480 1 118.823 669.440
11483 10695 10694 1 109.500 502.080
11488 11489 11496 1 125.237 669.440
11488 11505 11504 1 125.010 669.440
11488 11505 11506 1 116.164 669.440
11489 11488 11505 1 114.807 334.720
11489 11496 11497 1 114.843 334.720
11490 11489 11496 1 118.788 669.440
11491 4782 4781 1 109.500 502.080
11496 11497 11504 1 124.986 669.440
11497 11504 11505 1 115.117 334.720
11498 11497 11504 1 118.823 669.440
11499 7280 7279 1 109.500 502.080
11507 491 490 1 109.500 502.080
11512 11513 11520 1 125.237 669.440
11512 11531 11530 1 125.010 669.440
11512 11531 11532 1 116.164 669.440
11513 11512 11531 1 114.807 334.720
11513 11520 11521 1 114.843 334.720
11514 11513 11520 1 118.788 669.440
11515 9386 9385 1 109.500 502.080
11520 11521 11530 1 124.986 669.440
11521 11530 11531 1 115.117 334.720
11522 11521 11530 1 118.823 669.440
11540 11541 11548 1 125.237 669.440
11540 11557 11556 1 125.010 669.440
11540 11557 11558 1 116.164 669.440
11541 11540 11557 1 114.807 334.720
11541 11548 11549 1 114.843 334.720
11542 11541 11548 1 118.788 669.440
11543 4675 4674 1 109.500 502.080
11548 11549 11556 1 124.986 669.440
11549 11556 11557 1 115.117 334.720
11550 11549 11556 1 118.823 669.440
11551 5107 5106 1 109.500 502.080
11560 12258 12257 1 109.500 418.400
11560 12258 12259 1 109.500 292.880
11560 12258 12260 1 109.500 292.880
11565 11566 11573 1 125.237 669.440
11565 11582 11581 1 125.010 669.440
11565 11582 11583 1 116.164 669.440
11566 11565 11582 1 114.807 334.720
11566 11573 11574 1 114.843 334.720
11567 11566 11573 1 118.788 669.440
11568 8042 8041 1 109.500 502.080
11573 11574 11581 1 124.986 669.440
11574 11581 11582 1 115.117 334.720
11575 11574 11581 1 118.823 669.440
11576 8769 8768 1 109.500 502.080
11584 6289 6288 1 109.500 502.080
11589 11590 11597 1 125.237 669.440
11589 11608 11607 1 125.010 669.440
11589 11608 11609 1 116.164 669.440
11590 11589 11608 1 114.807 334.720
11590 11597 11598 1 114.843 334.720
11591 11590 11597 1 118.788 669.440
11592 9589 9588 1 109.500 502.080
11597 11598 11607 1 124.986 669.440
11598 11607 11608 1 115.117 334.720
11599 11598 11607 1 118.823 669.440
11610 4234 4233 1 109.500 502.080
11615 11616 11623 1 125.237 669.440
11615 11632 11631 1 125.010 669.440
11615 11632 11633 1 116.164 669.440
11616 11615 11632 1 114.807 334.720
11616 11623 11624 1 114.843 334.720
11617 11616 11623 1 118.788 669.440
11618 7039 7038 1 109.500 502.080
11623 11624 11631 1 124.986 669.440
11624 11631 11632 1 115.117 334.720
11625 11624 11631 1 118.823 669.440
11626 5918 5917 1 109.500 502.080
11634 6798 6797 1 109.500 502.080
11639 11640 11647 1 125.237 669.440
11639 11656 11655 1 125.010 669.440
11639 11656 11657 1 116.164 669.440
11640 11639 11656 1 114.807 334.720
11640 11647 11648 1 114.843 334.720
11641 11640 11647 1 118.788 669.440
11642 1745 1744 1 109.500 502.080
11647 11648 11655 1 124.986 669.440
11648 11655 11656 1 115.117 334.720
11649 11648 11655 1 118.823 669.440
11650 6486 6485 1 109.500 502.080
11658 6571 6570 1 109.500 502.080
11663 11664 11673 1 125.237 669.440
11663 11684 11683 1 125.010 669.440
11663 11684 11685 1 116.164 669.440
11664 11663 11684 1 114.807 334.720
11664 11673 11674 1 114.843 334.720
11665 11664 11673 1 118.788 669.440
11673 11674 11683 1 124.986 669.440
11674 11683 11684 1 115.117 334.720
11675 11674 11683 1 118.823 669.440
11686 3446 3445 1 109.500 502.080
11691 11692 11699 1 125.237 669.440
11691 11708 11707 1 125.010 669.440
11691 11708 11709 1 116.164 669.440
11692 11691 11708 1 114.807 334.720
11692 11699 11700 1 114.843 334.720
11693 11692 11699 1 118.788 669.440
11694 437 436 1 109.500 502.080
11699 11700 11707 1 124.986 669.440
11700 11707 11708 1 115.117 334.720
11701 11700 11707 1 118.823 669.440
11702 7739 7738 1 109.500 502.080
11711 12764 12763 1 109.500 418.400
11711 12764 12765 1 109.500 292.880
11711 12764 12766 1 109.500 292.880
11716 11717 11724 1 125.237 669.440
11716 11733 11732 1 125.010 669.440
11716 11733 11734 1 116.164 669.440
11717 11716 11733 1 114.807 334.720
11717 11724 11725 1 114.843 334.720
11718 11717 11724 1 118.788 669.440
11719 9209 9208 1 109.500 502.080
11724 11725 11732 1 124.986 669.440
11725 11732 11733 1 115.117 334.720
11726 11725 11732 1 118.823 669.440
11727 862 861 1 109.500 502.080
11735 71 70 1 109.500 502.080
11740 11741 11748 1 125.237 669.440
11740 11757 11756 1 125.010 669.440
11740 11757 11758 1 116.164 669.440
11741 11740 11757 1 114.807 334.720
11741 11748 11749 1 114.843 334.720
11742 11741 11748 1 118.788 669.440
11743 7670 7669 1 109.500 502.080
11748 11749 11756 1 124.986 669.440
11749 11756 11757 1 115.117 334.720
11750 11749 11756 1 118.823 669.440
11751 8940 8939 1 109.500 502.080
11759 1514 1513 1 109.500 502.080
11764 11765 11772 1 125.237 669.440
11764 11781 11780 1 125.010 669.440
11764 11781 11782 1 116.164 669.440
11765 11764 11781 1 114.807 334.720
11765 11772 11773 1 114.843 334.720
11766 11765 11772 1 118.788 669.440
11767 2569 2568 1 109.500 502.080
11772 11773 11780 1 124.986 669.440
11773 11780 11781 1 115.117 334.720
11774 11773 11780 1 118.823 669.440
11775 8786 8785 1 109.500 502.080
11783 1800 1799 1 109.500 502.080
11788 11789 11797 1 125.237 669.440
11788 11806 11805 1 125.010 669.440
11788 11806 11807 1 116.164 669.440
11789 11788 11806 1 114.807 334.720
11789 11797 11798 1 114.843 334.720
11790 11789 11797 1 118.788 669.440
11792 12147 12146 1 109.500 418.400
11792 12147 12148 1 109.500 292.880
11792 12147 12149 1 109.500 292.880
11797 11798 11805 1 124.986 669.440
11798 11805 11806 1 115.117 334.720
11799 11798 11805 1 118.823 669.440
11800 3701 3700 1 109.500 502.080
11808 7522 7521 1 109.500 502.080
11813 11814 11821 1 125.237 669.440
11813 11830 11829 1 125.010 669.440
11813 11830 11831 1 116.164 669.440
11814 11813 11830 1 114.807 334.720
11814 11821 11822 1 114.843 334.720
11815 11814 11821 1 118.788 669.440
11816 4002 4001 1 109.500 502.080
11821 11822 11829 1 124.986 669.440
11822 11829 11830 1 115.117 334.720
11823 11822 11829 1 118.823 669.440
11824 3255 3254 1 109.500 502.080
11833 12378 12377 1 109.500 418.400
11833 12378 12379 1 109.500 292.880
11833 12378 12380 1 109.500 292.880
11838 11839 11846 1 125.237 669.440
11838 11855 11854 1 125.010 669.440
11838 11855 11856 1 116.164 669.440
11839 11838 11855 1 114.807 334.720
11839 11846 11847 1 114.843 334.720
11840 11839 11846 1 118.788 669.440
11841 11401 11400 1 109.500 502.080
11846 11847 11854 1 124.986 669.440
11847 11854 11855 1 115.117 334.720
11848 11847 11854 1 118.823 669.440
11849 3492 3491 1 109.500 502.080
11858 12017 12016 1 109.500 418.400
11858 12017 12018 1 109.500 292.880
11858 12017 12019 1 109.500 292.880
11863 11864 11871 1 125.237 669.440
11863 11880 11879 1 125.010 669.440
11863 11880 11881 1 116.164 669.440
11864 11863 11880 1 114.807 334.720
11864 11871 11872 1 114.843 334.720
11865 11864 11871 1 118.788 669.440
11866 3518 3517 1 109.500 502.080
11871 11872 11879 1 124.986 669.440
11872 11879 11880 1 115.117 334.720
11873 11872 11879 1 118.823 669.440
11874 8760 8759 1 109.500 502.080
11882 8118 8117 1 109.500 502.080
11887 11888 11895 1 125.237 669.440
11887 11904 11903 1 125.010 669.440
11887 11904 11905 1 116.164 669.440
11888 11887 11904 1 114.807 334.720
11888 11895 11896 1 114.843 334.720
11889 11888 11895 1 118.788 669.440
11890 3781 3780 1 109.500 502.080
11895 11896 11903 1 124.986 669.440
11896 11903 11904 1 115.117 334.720
11897 11896 11903 1 118.823 669.440
11898 9828 9827 1 109.500 502.080
11907 12972 12971 1 109.500 418.400
11907 12972 12973 1 109.500 292.880
11907 12972 12974 1 109.500 292.880
11912 11913 11920 1 125.237 669.440
11912 11929 11928 1 125.010 669.440
11912 11929 11930 1 116.164 669.440
11913 11912 11929 1 114.807 334.720
11913 11920 11921 1 114.843 334.720
11914 11913 11920 1 118.788 669.440
11915 925 924 1 109.500 502.080
11920 11921 11928 1 124.986 669.440
11921 11928 11929 1 115.117 334.720
11922 11921 11928 1 118.823 669.440
11923 3070 3069 1 109.500 502.080
11932 12528 12527 1 109.500 418.400
11932 12528 12529 1 109.500 292.880
11932 12528 12530 1 109.500 292.880
11937 11938 11945 1 125.237 669.440
11937 11954 11953 1 125.010 669.440
11937 11954 11955 1 116.164 669.440
11938 11937 11954 1 114.807 334.720
11938 11945 11946 1 114.843 334.720
11939 11938 11945 1 118.788 669.440
11940 2651 2650 1 109.500 502.080
11945 11946 11953 1 124.986 669.440
11946 11953 11954 1 115.117 334.720
11947 11946 11953 1 118.823 669.440
11948 2560 2559 1 109.500 502.080
11956 9123 9122 1 109.500 502.080
11961 11962 11969 1 125.237 669.440
11961 11979 11978 1 125.010 669.440
11961 11979 11980 1 116.164 669.440
11962 11961 11979 1 114.807 334.720
11962 11969 11970 1 114.843 334.720
11963 11962 11969 1 118.788 669.440
11964 8683 8682 1 109.500 502.080
11969 11970 11978 1 124.986 669.440
11970 11978 11979 1 115.117 334.720
11971 11970 11978 1 118.823 669.440
11973 12232 12231 1 109.500 418.400
11973 12232 12233 1 109.500 292.880
11973 12232 12234 1 109.500 292.880
11981 4206 4205 1 109.500 502.080
11986 11987 11996 1 125.237 669.440
11986 12005 12004 1 125.010 669.440
11986 12005 12006 1 116.164 669.440
11987 11986 12005 1 114.807 334.720
11987 11996 11997 1 114.843 334.720
11988 11987 11996 1 118.788 669.440
11996 11997 12004 1 124.986 669.440
11997 12004 12005 1 115.117 334.720
11998 11997 12004 1 118.823 669.440
11999 7387 7386 1 109.500 502.080
12014 12015 12022 1 125.237 669.440
12014 12031 12030 1 125.010 669.440
12014 12031 12032 1 116.164 669.440
12015 12014 12031 1 114.807 334.720
12015 12022 12023 1 114.843 334.720
12016 12015 12022 1 118.788 669.440
12017 11858 11857 1 109.500 502.080
12022 12023 12030 1 124.986 669.440
12023 12030 12031 1 115.117 334.720
12024 12023 12030 1 118.823 669.440
12025 9519 9518 1 109.500 502.080
12033 10309 10308 1 109.500 502.080
12038 12039 12046 1 125.237 669.440
12038 12055 12054 1 125.010 669.440
12038 12055 12056 1 116.164 669.440
12039 12038 12055 1 114.807 334.720
12039 12046 12047 1 114.843 334.720
12040 12039 12046 1 118.788 669.440
12041 7713 7712 1 109.500 502.080
12046 12047 12054 1 124.986 669.440
12047 12054 12055 1 115.117 334.720
12048 12047 12054 1 118.823 669.440
12049 3727 3726 1 109.500 502.080
12057 8491 8490 1 109.500 502.080
12062 12063 12072 1 125.237 669.440
12062 12081 12080 1 125.010 669.440
12062 12081 12082 1 116.164 669.440
12063 12062 12081 1 114.807 334.720
12063 12072 12073 1 114.843 334.720
12064 12063 12072 1 118.788 669.440
12072 12073 12080 1 124.986 669.440
12073 12080 12081 1 115.117 334.720
12074 12073 12080 1 118.823 669.440
12075 4298 4297 1 109.500 502.080
12083 9510 9509 1 109.500 502.080
12088 12089 12096 1 125.237 669.440
12088 12105 12104 1 125.010 669.440
12088 12105 12106 1 116.164 669.440
12089 12088 12105 1 114.807 334.720
12089 12096 12097 1 114.843 334.720
12090 12089 12096 1 118.788 669.440
12091 4020 4019 1 109.500 502.080
12096 12097 12104 1 124.986 669.440
12097 12104 12105 1 115.117 334.720
12098 12097 12104 1 118.823 669.440
12099 2059 2058 1 109.500 502.080
12107 5476 5475 1 109.500 502.080
12112 12113 12120 1 125.237 669.440
12112 12129 12128 1 125.010 669.440
12112 12129 12130 1 116.164 669.440
12113 12112 12129 1 114.807 334.720
12113 12120 12121 1 114.843 334.720
12114 12113 12120 1 118.788 669.440
12115 2201 2200 1 109.500 502.080
12120 12121 12128 1 124.986 669.440
12121 12128 12129 1 115.117 334.720
12122 12121 12128 1 118.823 669.440
12123 6127 6126 1 109.500 502.080
12131 5675 5674 1 109.500 502.080
12136 12137 12144 1 125.237 669.440
12136 12153 12152 1 125.010 669.440
12136 12153 12154 1 116.164 669.440
12137 12136 12153 1 114.807 334.720
12137 12144 12145 1 114.843 334.720
12138 12137 12144 1 118.788 669.440
12139 1899 1898 1 109.500 502.080
12144 12145 12152 1 124.986 669.440
12145 12152 12153 1 115.117 334.720
12146 12145 12152 1 118.823 669.440
12147 11792 11791 1 109.500 502.080
12155 11028 11027 1 109.500 502.080
12160 12161 12168 1 125.237 669.440
12160 12177 12176 1 125.010 669.440
12160 12177 12178 1 116.164 669.440
12161 12160 12177 1 114.807 334.720
12161 12168 12169 1 114.843 334.720
12162 12161 12168 1 118.788 669.440
12163 8271 8270 1 109.500 502.080
12168 12169 12176 1 124.986 669.440
12169 12176 12177 1 115.117 334.720
12170 12169 12176 1 118.823 669.440
12171 1809 1808 1 109.500 502.080
12179 5791 5790 1 109.500 502.080
12184 12185 12194 1 125.237 669.440
12184 12204 12203 1 125.010 669.440
12184 12204 12205 1 116.164 669.440
12185 12184 12204 1 114.807 334.720
12185 12194 12195 1 114.843 334.720
12186 12185 12194 1 118.788 669.440
12194 12195 12203 1 124.986 669.440
12195 12203 12204 1 115.117 334.720
12196 12195 12203 1 118.823 669.440
12198 12410 12409 1 109.500 418.400
12198 12410 12411 1 109.500 292.880
12198 12410 12412 1 109.500 292.880
12213 12214 12221 1 125.237 669.440
12213 12230 12229 1 125.010 669.440
12213 12230 12231 1 116.164 669.440
12214 12213 12230 1 114.807 334.720
12214 12221 12222 1 114.843 334.720
12215 12214 12221 1 118.788 669.440
12216 2247 2246 1 109.500 502.080
12221 12222 12229 1 124.986 669.440
12222 12229 12230 1 115.117 334.720
12223 12222 12229 1 118.823 669.440
12224 9913 9912 1 109.500 502.080
12232 11973 11972 1 109.500 502.080
12237 12238 12247 1 125.237 669.440
12237 12256 12255 1 125.010 669.440
12237 12256 12257 1 116.164 669.440
12238 12237 12256 1 114.807 334.720
12238 12247 12248 1 114.843 334.720
12239 12238 12247 1 118.788 669.440
12247 12248 12255 1 124.986 669.440
12248 12255 12256 1 115.117 334.720
12249 12248 12255 1 118.823 669.440
12250 9790 9789 1 109.500 502.080
12258 11560 11559 1 109.500 502.080
12263 12264 12271 1 125.237 669.440
12263 12280 12279 1 125.010 669.440
12263 12280 12281 1 116.164 669.440
12264 12263 12280 1 114.807 334.720
12264 12271 12272 1 114.843 334.720
12265 12264 12271 1 118.788 669.440
12266 3282 3281 1 109.500 502.080
12271 12272 12279 1 124.986 669.440
12272 12279 12280 1 115.117 334.720
12273 12272 12279 1 118.823 669.440
12274 1890 1889 1 109.500 502.080
12282 2454 2453 1 109.500 502.080
12287 12288 12295 1 125.237 669.440
12287 12304 12303 1 125.010 669.440
12287 12304 12305 1 116.164 669.440
12288 12287 12304 1 114.807 334.720
12288 12295 12296 1 114.843 334.720
12289 12288 12295 1 118.788 669.440
12290 198 197 1 109.500 502.080
12295 12296 12303 1 124.986 669.440
12296 12303 12304 1 115.117 334.720
12297 12296 12303 1 118.823 669.440
12298 6686 6685 1 109.500 502.080
12306 1872 1871 1 109.500 502.080
12311 12312 12319 1 125.237 669.440
12311 12328 12327 1 125.010 669.440
12311 12328 12329 1 116.164 669.440
12312 12311 12328 1 114.807 334.720
12312 12319 12320 1 114.843 334.720
12313 12312 12319 1 118.788 669.440
12314 4383 4382 1 109.500 502.080
12319 12320 12327 1 124.986 669.440
12320 12327 12328 1 115.117 334.720
12321 12320 12327 1 118.823 669.440
12322 8015 8014 1 109.500 502.080
12330 8742 8741 1 109.500 502.080
12335 12336 12343 1 125.237 669.440
12335 12352 12351 1 125.010 669.440
12335 12352 12353 1 116.164 669.440
12336 12335 12352 1 114.807 334.720
12336 12343 12344 1 114.843 334.720
12337 12336 12343 1 118.788 669.440
12338 7960 7959 1 109.500 502.080
12343 12344 12351 1 124.986 669.440
12344 12351 12352 1 115.117 334.720
12345 12344 12351 1 118.823 669.440
12346 7021 7020 1 109.500 502.080
12354 8228 8227 1 109.500 502.080
12359 12360 12367 1 125.237 669.440
12359 12376 12375 1 125.010 669.440
12359 12376 12377 1 116.164 669.440
12360 12359 12376 1 114.807 334.720
12360 12367 12368 1 114.843 334.720
12361 12360 12367 1 118.788 669.440
12362 10383 10382 1 109.500 502.080
12367 12368 12375 1 124.986 669.440
12368 12375 12376 1 115.117 334.720
12369 12368 12375 1 118.823 669.440
12370 2382 2381 1 109.500 502.080
12378 11833 11832 1 109.500 502.080
12383 12384 12391 1 125.237 669.440
12383 12400 12399 1 125.010 669.440
12383 12400 12401 1 116.164 669.440
12384 12383 12400 1 114.807 334.720
12384 12391 12392 1 114.843 334.720
12385 12384 12391 1 118.788 669.440
12386 1846 1845 1 109.500 502.080
12391 12392 12399 1 124.986 669.440
12392 12399 12400 1 115.117 334.720
12393 12392 12399 1 118.823 669.440
12394 3613 3612 1 109.500 502.080
12402 2642 2641 1 109.500 502.080
12407 12408 12415 1 125.237 669.440
12407 12426 12425 1 125.010 669.440
12407 12426 12427 1 116.164 669.440
12408 12407 12426 1 114.807 334.720
12408 12415 12416 1 114.843 334.720
12409 12408 12415 1 118.788 669.440
12410 12198 12197 1 109.500 502.080
12415 12416 12425 1 124.986 669.440
12416 12425 12426 1 115.117 334.720
12417 12416 12425 1 118.823 669.440
12428 11280 11279 1 109.500 502.080
12433 12434 12441 1 125.237 669.440
12433 12450 12449 1 125.010 669.440
12433 12450 12451 1 116.164 669.440
12434 12433 12450 1 114.807 334.720
12434 12441 12442 1 114.843 334.720
12435 12434 12441 1 118.788 669.440
12436 3115 3114 1 109.500 502.080
12441 12442 12449 1 124.986 669.440
12442 12449 12450 1 115.117 334.720
12443 12442 12449 1 118.823 669.440
12444 3692 3691 1 109.500 502.080
12452 1000 999 1 109.500 502.080
12457 12458 12465 1 125.237 669.440
12457 12474 12473 1 125.010 669.440
12457 12474 12475 1 116.164 669.440
12458 12457 12474 1 114.807 334.720
12458 12465 12466 1 114.843 334.720
12459 12458 12465 1 118.788 669.440
12460 11150 11149 1 109.500 502.080
12465 12466 12473 1 124.986 669.440
12466 12473 12474 1 115.117 334.720
12467 12466 12473 1 118.823 669.440
12468 4808 4807 1 109.500 502.080
12476 2688 2687 1 109.500 502.080
12481 12482 12489 1 125.237 669.440
12481 12500 12499 1 125.010 669.440
12481 12500 12501 1 116.164 669.440
12482 12481 12500 1 114.807 334.720
12482 12489 12490 1 114.843 334.720
12483 12482 12489 1 118.788 669.440
12484 7849 7848 1 109.500 502.080
12489 12490 12499 1 124.986 669.440
12490 12499 12500 1 115.117 334.720
12491 12490 12499 1 118.823 669.440
12502 9160 9159 1 109.500 502.080
12507 12508 12515 1 125.237 669.440
12507 12526 12525 1 125.010 669.440
12507 12526 12527 1 116.164 669.440
12508 12507 12526 1 114.807 334.720
12508 12515 12516 1 114.843 334.720
12509 12508 12515 1 118.788 669.440
12510 3309 3308 1 109.500 502.080
12515 12516 12525 1 124.986 669.440
12516 12525 12526 1 115.117 334.720
12517 12516 12525 1 118.823 669.440
12528 11932 11931 1 109.500 502.080
12533 12534 12541 1 125.237 669.440
12533 12550 12549 1 125.010 669.440
12533 12550 12551 1 116.164 669.440
12534 12533 12550 1 114.807 334.720
12534 12541 12542 1 114.843 334.720
12535 12534 12541 1 118.788 669.440
12536 4252 4251 1 109.500 502.080
12541 12542 12549 1 124.986 669.440
12542 12549 12550 1 115.117 334.720
12543 12542 12549 1 118.823 669.440
12544 6562 6561 1 109.500 502.080
12559 12560 12567 1 125.237 669.440
12559 12576 12575 1 125.010 669.440
12559 12576 12577 1 116.164 669.440
12560 12559 12576 1 114.807 334.720
12560 12567 12568 1 114.843 334.720
12561 12560 12567 1 118.788 669.440
12562 9845 9844 1 109.500 502.080
12567 12568 12575 1 124.986 669.440
12568 12575 12576 1 115.117 334.720
12569 12568 12575 1 118.823 669.440
12570 2292 2291 1 109.500 502.080
12578 3501 3500 1 109.500 502.080
12583 12584 12591 1 125.237 669.440
12583 12600 12599 1 125.010 669.440
12583 12600 12601 1 116.164 669.440
12584 12583 12600 1 114.807 334.720
12584 12591 12592 1 114.843 334.720
12585 12584 12591 1 118.788 669.440
12586 9553 9552 1 109.500 502.080
12591 12592 12599 1 124.986 669.440
12592 12599 12600 1 115.117 334.720
12593 12592 12599 1 118.823 669.440
12594 8405 8404 1 109.500 502.080
12602 9041 9040 1 109.500 502.080
12607 12608 12615 1 125.237 669.440
12607 12624 12623 1 125.010 669.440
12607 12624 12625 1 116.164 669.440
12608 12607 12624 1 114.807 334.720
12608 12615 12616 1 114.843 334.720
12609 12608 12615 1 118.788 669.440
12610 8380 8379 1 109.500 502.080
12615 12616 12623 1 124.986 669.440
12616 12623 12624 1 115.117 334.720
12617 12616 12623 1 118.823 669.440
12618 11011 11010 1 109.500 502.080
12626 9746 9745 1 109.500 502.080
12631 12632 12639 1 125.237 669.440
12631 12648 12647 1 125.010 669.440
12631 12648 12649 1 116.164 669.440
12632 12631 12648 1 114.807 334.720
12632 12639 12640 1 114.843 334.720
12633 12632 12639 1 118.788 669.440
12634 7159 7158 1 109.500 502.080
12639 12640 12647 1 124.986 669.440
12640 12647 12648 1 115.117 334.720
12641 12640 12647 1 118.823 669.440
12642 6144 6143 1 109.500 502.080
12650 171 170 1 109.500 502.080
12655 12656 12663 1 125.237 669.440
12655 12672 12671 1 125.010 669.440
12655 12672 12673 1 116.164 669.440
12656 12655 12672 1 114.807 334.720
12656 12663 12664 1 114.843 334.720
12657 12656 12663 1 118.788 669.440
12658 11229 11228 1 109.500 502.080
12663 12664 12671 1 124.986 669.440
12664 12671 12672 1 115.117 334.720
12665 12664 12671 1 118.823 669.440
12666 7368 7367 1 109.500 502.080
12681 12682 12689 1 125.237 669.440
12681 12698 12697 1 125.010 669.440
12681 12698 12699 1 116.164 669.440
12682 12681 12698 1 114.807 334.720
12682 12689 12690 1 114.843 334.720
12683 12682 12689 1 118.788 669.440
12684 8558 8557 1 109.500 502.080
12689 12690 12697 1 124.986 669.440
12690 12697 12698 1 115.117 334.720
12691 12690 12697 1 118.823 669.440
12692 9536 9535 1 109.500 502.080
12700 3931 3930 1 109.500 502.080
12705 12706 12713 1 125.237 669.440
12705 12722 12721 1 125.010 669.440
12705 12722 12723 1 116.164 669.440
12706 12705 12722 1 114.807 334.720
12706 12713 12714 1 114.843 334.720
12707 12706 12713 1 118.788 669.440
12708 9493 9492 1 109.500 502.080
12713 12714 12721 1 124.986 669.440
12714 12721 12722 1 115.117 334.720
12715 12714 12721 1 118.823 669.440
12716 5702 5701 1 109.500 502.080
12724 5537 5536 1 109.500 502.080
12729 12730 12737 1 125.237 669.440
12729 12746 12745 1 125.010 669.440
12729 12746 12747 1 116.164 669.440
12730 12729 12746 1 114.807 334.720
12730 12737 12738 1 114.843 334.720
12731 12730 12737 1 118.788 669.440
12732 7636 7635 1 109.500 502.080
12737 12738 12745 1 124.986 669.440
12738 12745 12746 1 115.117 334.720
12739 12738 12745 1 118.823 669.440
12740 3993 3992 1 109.500 502.080
12748 10809 10808 1 109.500 502.080
12753 12754 12761 1 125.237 669.440
12753 12770 12769 1 125.010 669.440
12753 12770 12771 1 116.164 669.440
12754 12753 12770 1 114.807 334.720
12754 12761 12762 1 114.843 334.720
12755 12754 12761 1 118.788 669.440
12756 4981 4980 1 109.500 502.080
12761 12762 12769 1 124.986 669.440
12762 12769 12770 1 115.117 334.720
12763 12762 12769 1 118.823 669.440
12764 11711 11710 1 109.500 502.080
12772 9098 9097 1 109.500 502.080
12777 12778 12785 1 125.237 669.440
12777 12794 12793 1 125.010 669.440
12777 12794 12795 1 116.164 669.440
12778 12777 12794 1 114.807 334.720
12778 12785 12786 1 114.843 334.720
12779 12778 12785 1 118.788 669.440
12780 7168 7167 1 109.500 502.080
12785 12786 12793 1 124.986 669.440
12786 12793 12794 1 115.117 334.720
12787 12786 12793 1 118.823 669.440
12788 4594 4593 1 109.500 502.080
12796 1199 1198 1 109.500 502.080
12801 12802 12809 1 125.237 669.440
12801 12818 12817 1 125.010 669.440
12801 12818 12819 1 116.164 669.440
12802 12801 12818 1 114.807 334.720
12802 12809 12810 1 114.843 334.720
12803 12802 12809 1 118.788 669.440
12804 1397 1396 1 109.500 502.080
12809 12810 12817 1 124.986 669.440
12810 12817 12818 1 115.117 334.720
12811 12810 12817 1 118.823 669.440
12812 10869 10868 1 109.500 502.080
12820 1639 1638 1 109.500 502.080
12825 12826 12833 1 125.237 669.440
12825 12844 12843 1 125.010 669.440
12825 12844 12845 1 116.164 669.440
12826 12825 12844 1 114.807 334.720
12826 12833 12834 1 114.843 334.720
12827 12826 12833 1 118.788 669.440
12828 9938 9937 1 109.500 502.080
12833 12834 12843 1 124.986 669.440
12834 12843 12844 1 115.117 334.720
12835 12834 12843 1 118.823 669.440
12846 10037 10036 1 109.500 502.080
12851 12852 12859 1 125.237 669.440
12851 12870 12869 1 125.010 669.440
12851 12870 12871 1 116.164 669.440
12852 12851 12870 1 114.807 334.720
12852 12859 12860 1 114.843 334.720
12853 12852 12859 1 118.788 669.440
12854 391 390 1 109.500 502.080
12859 12860 12869 1 124.986 669.440
12860 12869 12870 1 115.117 334.720
12861 12860 12869 1 118.823 669.440
12879 12880 12887 1 125.237 669.440
12879 12896 12895 1 125.010 669.440
12879 12896 12897 1 116.164 669.440
12880 12879 12896 1 114.807 334.720
12880 12887 12888 1 114.843 334.720
12881 12880 12887 1 118.788 669.440
12882 7645 7644 1 109.500 502.080
12887 12888 12895 1 124.986 669.440
12888 12895 12896 1 115.117 334.720
12889 12888 12895 1 118.823 669.440
12890 1621 1620 1 109.500 502.080
12898 1009 1008 1 109.500 502.080
12903 12904 12913 1 125.237 669.440
12903 12922 12921 1 125.010 669.440
12903 12922 12923 1 116.164 669.440
12904 12903 12922 1 114.807 334.720
12904 12913 12914 1 114.843 334.720
12905 12904 12913 1 118.788 669.440
12913 12914 12921 1 124.986 669.440
12914 12921 12922 1 115.117 334.720
12915 12914 12921 1 118.823 669.440
12916 3219 3218 1 109.500 502.080
12924 3736 3735 1 109.500 502.080
12929 12930 12937 1 125.237 669.440
12929 12946 12945 1 125.010 669.440
12929 12946 12947 1 116.164 669.440
12930 12929 12946 1 114.807 334.720
12930 12937 12938 1 114.843 334.720
12931 12930 12937 1 118.788 669.440
12932 6432 6431 1 109.500 502.080
12937 12938 12945 1 124.986 669.440
12938 12945 12946 1 115.117 334.720
12939 12938 12945 1 118.823 669.440
12940 7565 7564 1 109.500 502.080
12948 8246 8245 1 109.500 502.080
12953 12954 12961 1 125.237 669.440
12953 12970 12969 1 125.010 669.440
12953 12970 12971 1 116.164 669.440
12954 12953 12970 1 114.807 334.720
12954 12961 12962 1 114.843 334.720
12955 12954 12961 1 118.788 669.440
12956 2210 2209 1 109.500 502.080
12961 12962 12969 1 124.986 669.440
12962 12969 12970 1 115.117 334.720
12963 12962 12969 1 118.823 669.440
12964 4160 4159 1 109.500 502.080
12972 11907 11906 1 109.500 502.080

[ cross_dihedrals ]
2 3 11 12 3 30.28798 -4.81160 -25.47638 0.00000 0.00000 0.00000 ; imides
2 21 22 23 3 33.20422 0.00000 -33.20422 0.00000 0.00000 0.00000 ; methylguanidinium ion
2 21 22 27 3 20.50160 0.00000 -20.50160 0.00000 0.00000 0.00000 ; imides
3 2 21 20 3 30.28798 -4.81160 -25.47638 0.00000 0.00000 0.00000 ; imides
3 2 21 22 3 33.20422 0.00000 -33.20422 0.00000 0.00000 0.00000 ; methylguanidinium ion
3 11 12 13 3 33.20422 0.00000 -33.20422 0.00000 0.00000 0.00000 ; methylguanidinium ion
3 11 12 20 3 30.28798 -4.81160 -25.47638 0.00000 0.00000 0.00000 ; imides
4 3 11 12 3 33.20422 0.00000 -33.20422 0.00000 0.00000 0.00000 ; methylguanidinium ion
5 6 5545 5544 3 1.58992 4.76976 0.00000 -6.35968 0.00000 0.00000
5 6 5545 5546 3 1.58992 4.76976 0.00000 -6.35968 0.00000 0.00000
5 6 5545 5547 3 1.58992 4.76976 0.00000 -6.35968 0.00000 0.00000
6 5545 5544 5543 3 1.78866 3.49154 0.53555 -5.81576 0.00000 0.00000
6 5545 5544 5548 3 -1.26775 3.02085 1.74473 -3.49782 0.00000 0.00000
11 3 4 5 3 33.20422 0.00000 -33.20422 0.00000 0.00000 0.00000 ; methylguanidinium ion
11 3 4 9 3 20.50160 0.00000 -20.50160 0.00000 0.00000 0.00000 ; imides
11 12 20 21 3 30.28798 -4.81160 -25.47638 0.00000 0.00000 0.00000 ; imides
12 20 21 2 3 30.28798 -4.81160 -25.47638 0.00000 0.00000 0.00000 ; imides
12 20 21 22 3 33.20422 0.00000 -33.20422 0.00000 0.00000 0.00000 ; methylguanidinium ion
13 12 20 21 3 33.20422 0.00000 -33.20422 0.00000 0.00000 0.00000 ; methylguanidinium ion
14 15 4315 4314 3 1.58992 4.76976 0.00000 -6.35968 0.00000 0.00000
14 15 4315 4316 3 1.58992 4.76976 0.00000 -6.35968 0.00000 0.00000
14 15 4315 4317 3 1.58992 4.76976 0.00000 -6.35968 0.00000 0.00000
15 4315 4314 4313 3 1.78866 3.49154 0.53555 -5.81576 0.00000 0.00000
15 4315 4314 4318 3 -1.26775 3.02085 1.74473 -3.49782 0.00000 0.00000
20 12 13 14 3 33.20422 0.00000 -33.20422 0.00000 0.00000 0.00000 ; methylguanidinium ion
20 12 13 18 3 20.50160 0.00000 -20.50160 0.00000 0.00000 0.00000 ; imides
21 2 3 4 3 33.20422 0.00000 -33.20422 0.00000 0.00000 0.00000 ; methylguanidinium ion
21 2 3 11 3 30.28798 -4.81160 -25.47638 0.00000 0.00000 0.00000 ; imides
23 24 4868 4867 3 1.58992 4.76976 0.00000 -6.35968 0.00000 0.00000
23 24 4868 4869 3 1.58992 4.76976 0.00000 -6.35968 0.00000 0.00000
23 24 4868 4870 3 1.58992 4.76976 0.00000 -6.35968 0.00000 0.00000
24 4868 4867 4866 3 1.78866 3.49154 0.53555 -5.81576 0.00000 0.00000
24 4868 4867 4871 3 -1.26775 3.02085 1.74473 -3.49782 0.00000 0.00000
29 30 38 39 3 30.28798 -4.81160 -25.47638 0.00000 0.00000 0.00000 ; imides
29 49 50 51 3 33.20422 0.00000 -33.20422 0.00000 0.00000 0.00000 ; methylguanidinium ion
29 49 50 56 3 20.50160 0.00000 -20.50160 0.00000 0.00000 0.00000 ; imides
30 29 49 48 3 30.28798 -4.81160 -25.47638 0.00000 0.00000 0.00000 ; imides
30 29 49 50 3 33.20422 0.00000 -33.20422 0.00000 0.00000 0.00000 ; methylguanidinium ion
30 38 39 40 3 33.20422 0.00000 -33.20422 0.00000 0.00000 0.00000 ; methylguanidinium ion
30 38 39 48 3 30.28798 -4.81160 -25.47638 0.00000 0.00000 0.00000 ; imides
31 30 38 39 3 33.20422 0.00000 -33.20422 0.00000 0.00000 0.00000 ; methylguanidinium ion
32 33 1709 1708 3 1.58992 4.76976 0.00000 -6.35968 0.00000 0.00000
32 33 1709 1710 3 1.58992 4.76976 0.00000 -6.35968 0.00000 0.00000
32 33 1709 1711 3 1.58992 4.76976 0.00000 -6.35968 0.00000 0.00000
33 1709 1708 1707 3 1.78866 3.49154 0.53555 -5.81576 0.00000 0.00000
33 1709 1708 1712 3 -1.26775 3.02085 1.74473 -3.49782 0.00000 0.00000
38 30 31 32 3 33.20422 0.00000 -33.20422 0.00000 0.00000 0.00000 ; methylguanidinium ion
38 30 31 36 3 20.50160 0.00000 -20.50160 0.00000 0.00000 0.00000 ; imides
38 39 48 49 3 30.28798 -4.81160 -25.47638 0.00000 0.00000 0.00000 ; imides
39 48 49 29 3 30.28798 -4.81160 -25.47638 0.00000 0.00000 0.00000 ; imides
39 48 49 50 3 33.20422 0.00000 -33.20422 0.00000 0.00000 0.00000 ; methylguanidinium ion
40 39 48 49 3 33.20422 0.00000 -33.20422 0.00000 0.00000 0.00000 ; methylguanidinium ion
48 39 40 41 3 33.20422 0.00000 -33.20422 0.00000 0.00000 0.00000 ; methylguanidinium ion
48 39 40 46 3 20.50160 0.00000 -20.50160 0.00000 0.00000 0.00000 ; imides
49 29 30 31 3 33.20422 0.00000 -33.20422 0.00000 0.00000 0.00000 ; methylguanidinium ion
49 29 30 38 3 30.28798 -4.81160 -25.47638 0.00000 0.00000 0.00000 ; imides
58 59 67 68 3 30.28798 -4.81160 -25.47638 0.00000 0.00000 0.00000 ; imides
58 77 78 79 3 33.20422 0.00000 -33.20422 0.00000 0.00000 0.00000 ; methylguanidinium ion
58 77 78 83 3 20.50160 0.00000 -20.50160 0.00000 0.00000 0.00000 ; imides
59 58 77 76 3 30.28798 -4.81160 -25.47638 0.00000 0.00000 0.00000 ; imides
59 58 77 78 3 33.20422 0.00000 -33.20422 0.00000 0.00000 0.00000 ; methylguanidinium ion
59 67 68 69 3 33.20422 0.00000 -33.20422 0.00000 0.00000 0.00000 ; methylguanidinium ion
59 67 68 76 3 30.28798 -4.81160 -25.47638 0.00000 0.00000 0.00000 ; imides
60 59 67 68 3 33.20422 0.00000 -33.20422 0.00000 0.00000 0.00000 ; methylguanidinium ion
61 62 4151 4150 3 1.58992 4.76976 0.00000 -6.35968 0.00000 0.00000
61 62 4151 4152 3 1.58992 4.76976 0.00000 -6.35968 0.00000 0.00000
61 62 4151 4153 3 1.58992 4.76976 0.00000 -6.35968 0.00000 0.00000
62 4151 4150 4149 3 1.78866 3.49154 0.53555 -5.81576 0.00000 0.00000
62 4151 4150 4154 3 -1.26775 3.02085 1.74473 -3.49782 0.00000 0.00000
67 59 60 61 3 33.20422 0.00000 -33.20422 0.00000 0.00000 0.00000 ; methylguanidinium ion
67 59 60 65 3 20.50160 0.00000 -20.50160 0.00000 0.00000 0.00000 ; imides
67 68 76 77 3 30.28798 -4.81160 -25.47638 0.00000 0.00000 0.00000 ; imides
68 76 77 58 3 30.28798 -4.81160 -25.47638 0.00000 0.00000 0.00000 ; imides
68 76 77 78 3 33.20422 0.00000 -33.20422 0.00000 0.00000 0.00000 ; methylguanidinium ion
69 68 76 77 3 33.20422 0.00000 -33.20422 0.00000 0.00000 0.00000 ; methylguanidinium ion
70 71 11735 11734 3 1.58992 4.76976 0.00000 -6.35968 0.00000 0.00000
70 71 11735 11736 3 1.58992 4.76976 0.00000 -6.35968 0.00000 0.00000
70 71 11735 11737 3 1.58992 4.76976 0.00000 -6.35968 0.00000 0.00000
71 11735 11734 11733 3 1.78866 3.49154 0.53555 -5.81576 0.00000 0.00000
71 11735 11734 11738 3 -1.26775 3.02085 1.74473 -3.49782 0.00000 0.00000
76 68 69 70 3 33.20422 0.00000 -33.20422 0.00000 0.00000 0.00000 ; methylguanidinium ion
76 68 69 74 3 20.50160 0.00000 -20.50160 0.00000 0.00000 0.00000 ; imides
77 58 59 60 3 33.20422 0.00000 -33.20422 0.00000 0.00000 0.00000 ; methylguanidinium ion
77 58 59 67 3 30.28798 -4.81160 -25.47638 0.00000 0.00000 0.00000 ; imides
79 80 8330 8329 3 1.58992 4.76976 0.00000 -6.35968 0.00000 0.00000
79 80 8330 8331 3 1.58992 4.76976 0.00000 -6.35968 0.00000 0.00000
79 80 8330 8332 3 1.58992 4.76976 0.00000 -6.35968 0.00000 0.00000
80 8330 8329 8328 3 1.78866 3.49154 0.53555 -5.81576 0.00000 0.00000
80 8330 8329 8333 3 -1.26775 3.02085 1.74473 -3.49782 0.00000 0.00000
85 86 94 95 3 30.28798 -4.81160 -25.47638 0.00000 0.00000 0.00000 ; imides
85 105 106 107 3 33.20422 0.00000 -33.20422 0.00000 0.00000 0.00000 ; methylguanidinium ion
85 105 106 111 3 20.50160 0.00000 -20.50160 0.00000 0.00000 0.00000 ; imides
86 85 105 104 3 30.28798 -4.81160 -25.47638 0.00000 0.00000 0.00000 ; imides
86 85 105 106 3 33.20422 0.00000 -33.20422 0.00000 0.00000 0.00000 ; methylguanidinium ion
86 94 95 96 3 33.20422 0.00000 -33.20422 0.00000 0.00000 0.00000 ; methylguanidinium ion
86 94 95 104 3 30.28798 -4.81160 -25.47638 0.00000 0.00000 0.00000 ; imides
87 86 94 95 3 33.20422 0.00000 -33.20422 0.00000 0.00000 0.00000 ; methylguanidinium ion
88 89 4964 4963 3 1.58992 4.76976 0.00000 -6.35968 0.00000 0.00000
88 89 4964 4965 3 1.58992 4.76976 0.00000 -6.35968 0.00000 0.00000
88 89 4964 4966 3 1.58992 4.76976 0.00000 -6.35968 0.00000 0.00000
89 4964 4963 4962 3 1.78866 3.49154 0.53555 -5.81576 0.00000 0.00000
89 4964 4963 4967 3 -1.26775 3.02085 1.74473 -3.49782 0.00000 0.00000
94 86 87 88 3 33.20422 0.00000 -33.20422 0.00000 0.00000 0.00000 ; methylguanidinium ion
94 86 87 92 3 20.50160 0.00000 -20.50160 0.00000 0.00000 0.00000 ; imides
94 95 104 105 3 30.28798 -4.81160 -25.47638 0.00000 0.00000 0.00000 ; imides
95 104 105 85 3 30.28798 -4.81160 -25.47638 0.00000 0.00000 0.00000 ; imides
95 104 105 106 3 33.20422 0.00000 -33.20422 0.00000 0.00000 0.00000 ; methylguanidinium ion
96 95 104 105 3 33.20422 0.00000 -33.20422 0.00000 0.00000 0.00000 ; methylguanidinium ion
104 95 96 97 3 33.20422 0.00000 -33.20422 0.00000 0.00000 0.00000 ; methylguanidinium ion
104 95 96 102 3 20.50160 0.00000 -20.50160 0.00000 0.00000 0.00000 ; imides
105 85 86 87 3 33.20422 0.00000 -33.20422 0.00000 0.00000 0.00000 ; methylguanidinium ion
105 85 86 94 3 30.28798 -4.81160 -25.47638 0.00000 0.00000 0.00000 ; imides
107 108 726 725 3 1.58992 4.76976 0.00000 -6.35968 0.00000 0.00000
107 108 726 727 3 1.58992 4.76976 0.00000 -6.35968 0.00000 0.00000
107 108 726 728 3 1.58992 4.76976 0.00000 -6.35968 0.00000 0.00000
108 726 725 724 3 1.78866 3.49154 0.53555 -5.81576 0.00000 0.00000
108 726 725 729 3 -1.26775 3.02085 1.74473 -3.49782 0.00000 0.00000
113 114 122 123 3 30.28798 -4.81160 -25.47638 0.00000 0.00000 0.00000 ; imides
113 132 133 134 3 33.20422 0.00000 -33.20422 0.00000 0.00000 0.00000 ; methylguanidinium ion
113 132 133 138 3 20.50160 0.00000 -20.50160 0.00000 0.00000 0.00000 ; imides
114 113 132 131 3 30.28798 -4.81160 -25.47638 0.00000 0.00000 0.00000 ; imides
114 113 132 133 3 33.20422 0.00000 -33.20422 0.00000 0.00000 0.00000 ; methylguanidinium ion
114 122 123 124 3 33.20422 0.00000 -33.20422 0.00000 0.00000 0.00000 ; methylguanidinium ion
114 122 123 131 3 30.28798 -4.81160 -25.47638 0.00000 0.00000 0.00000 ; imides
115 114 122 123 3 33.20422 0.00000 -33.20422 0.00000 0.00000 0.00000 ; methylguanidinium ion
116 117 2696 2695 3 1.58992 4.76976 0.00000 -6.35968 0.00000 0.00000
116 117 2696 2697 3 1.58992 4.76976 0.00000 -6.35968 0.00000 0.00000
116 117 2696 2698 3 1.58992 4.76976 0.00000 -6.35968 0.00000 0.00000
117 2696 2695 2694 3 1.78866 3.49154 0.53555 -5.81576 0.00000 0.00000
117 2696 2695 2699 3 -1.26775 3.02085 1.74473 -3.49782 0.00000 0.00000
122 114 115 116 3 33.20422 0.00000 -33.20422 0.00000 0.00000 0.00000 ; methylguanidinium ion
122 114 115 120 3 20.50160 0.00000 -20.50160 0.00000 0.00000 0.00000 ; imides
122 123 131 132 3 30.28798 -4.81160 -25.47638 0.00000 0.00000 0.00000 ; imides
123 131 132 113 3 30.28798 -4.81160 -25.47638 0.00000 0.00000 0.00000 ; imides
123 131 132 133 3 33.20422 0.00000 -33.20422 0.00000 0.00000 0.00000 ; methylguanidinium ion
124 123 131 132 3 33.20422 0.00000 -33.20422 0.00000 0.00000 0.00000 ; methylguanidinium ion
125 126 1701 1700 3 1.58992 4.76976 0.00000 -6.35968 0.00000 0.00000
125 126 1701 1702 3 1.58992 4.76976 0.00000 -6.35968 0.00000 0.00000
125 126 1701 1703 3 1.58992 4.76976 0.00000 -6.35968 0.00000 0.00000
126 1701 1700 1699 3 1.78866 3.49154 0.53555 -5.81576 0.00000 0.00000
126 1701 1700 1704 3 -1.26775 3.02085 1.74473 -3.49782 0.00000 0.00000
131 123 124 125 3 33.20422 0.00000 -33.20422 0.00000 0.00000 0.00000 ; methylguanidinium ion
131 123 124 129 3 20.50160 0.00000 -20.50160 0.00000 0.00000 0.00000 ; imides
132 113 114 115 3 33.20422 0.00000 -33.20422 0.00000 0.00000 0.00000 ; methylguanidinium ion
132 113 114 122 3 30.28798 -4.81160 -25.47638 0.00000 0.00000 0.00000 ; imides
134 135 2426 2425 3 1.58992 4.76976 0.00000 -6.35968 0.00000 0.00000
134 135 2426 2427 3 1.58992 4.76976 0.00000 -6.35968 0.00000 0.00000
134 135 2426 2428 3 1.58992 4.76976 0.00000 -6.35968 0.00000 0.00000
135 2426 2425 2424 3 1.78866 3.49154 0.53555 -5.81576 0.00000 0.00000
135 2426 2425 2429 3 -1.26775 3.02085 1.74473 -3.49782 0.00000 0.00000
140 141 149 150 3 30.28798 -4.81160 -25.47638 0.00000 0.00000 0.00000 ; imides
140 159 160 161 3 33.20422 0.00000 -33.20422 0.00000 0.00000 0.00000 ; methylguanidinium ion
140 159 160 165 3 20.50160 0.00000 -20.50160 0.00000 0.00000 0.00000 ; imides
141 140 159 158 3 30.28798 -4.81160 -25.47638 0.00000 0.00000 0.00000 ; imides
141 140 159 160 3 33.20422 0.00000 -33.20422 0.00000 0.00000 0.00000 ; methylguanidinium ion
141 149 150 151 3 33.20422 0.00000 -33.20422 0.00000 0.00000 0.00000 ; methylguanidinium ion
141 149 150 158 3 30.28798 -4.81160 -25.47638 0.00000 0.00000 0.00000 ; imides
142 141 149 150 3 33.20422 0.00000 -33.20422 0.00000 0.00000 0.00000 ; methylguanidinium ion
143 144 9342 9341 3 1.58992 4.76976 0.00000 -6.35968 0.00000 0.00000
143 144 9342 9343 3 1.58992 4.76976 0.00000 -6.35968 0.00000 0.00000
143 144 9342 9344 3 1.58992 4.76976 0.00000 -6.35968 0.00000 0.00000
144 9342 9341 9340 3 1.78866 3.49154 0.53555 -5.81576 0.00000 0.00000
144 9342 9341 9345 3 -1.26775 3.02085 1.74473 -3.49782 0.00000 0.00000
149 141 142 143 3 33.20422 0.00000 -33.20422 0.00000 0.00000 0.00000 ; methylguanidinium ion
149 141 142 147 3 20.50160 0.00000 -20.50160 0.00000 0.00000 0.00000 ; imides
149 150 158 159 3 30.28798 -4.81160 -25.47638 0.00000 0.00000 0.00000 ; imides
150 158 159 140 3 30.28798 -4.81160 -25.47638 0.00000 0.00000 0.00000 ; imides
150 158 159 160 3 33.20422 0.00000 -33.20422 0.00000 0.00000 0.00000 ; methylguanidinium ion
151 150 158 159 3 33.20422 0.00000 -33.20422 0.00000 0.00000 0.00000 ; methylguanidinium ion
152 153 10508 10507 3 1.58992 4.76976 0.00000 -6.35968 0.00000 0.00000
152 153 10508 10509 3 1.58992 4.76976 0.00000 -6.35968 0.00000 0.00000
152 153 10508 10510 3 1.58992 4.76976 0.00000 -6.35968 0.00000 0.00000
153 10508 10507 10506 3 1.78866 3.49154 0.53555 -5.81576 0.00000 0.00000
153 10508 10507 10511 3 -1.26775 3.02085 1.74473 -3.49782 0.00000 0.00000
158 150 151 152 3 33.20422 0.00000 -33.20422 0.00000 0.00000 0.00000 ; methylguanidinium ion
158 150 151 156 3 20.50160 0.00000 -20.50160 0.00000 0.00000 0.00000 ; imides
159 140 141 142 3 33.20422 0.00000 -33.20422 0.00000 0.00000 0.00000 ; methylguanidinium ion
159 140 141 149 3 30.28798 -4.81160 -25.47638 0.00000 0.00000 0.00000 ; imides
161 162 10703 10702 3 1.58992 4.76976 0.00000 -6.35968 0.00000 0.00000
161 162 10703 10704 3 1.58992 4.76976 0.00000 -6.35968 0.00000 0.00000
161 162 10703 10705 3 1.58992 4.76976 0.00000 -6.35968 0.00000 0.00000
162 10703 10702 10701 3 1.78866 3.49154 0.53555 -5.81576 0.00000 0.00000
162 10703 10702 10706 3 -1.26775 3.02085 1.74473 -3.49782 0.00000 0.00000
167 168 176 177 3 30.28798 -4.81160 -25.47638 0.00000 0.00000 0.00000 ; imides
167 186 187 188 3 33.20422 0.00000 -33.20422 0.00000 0.00000 0.00000 ; methylguanidinium ion
167 186 187 192 3 20.50160 0.00000 -20.50160 0.00000 0.00000 0.00000 ; imides
168 167 186 185 3 30.28798 -4.81160 -25.47638 0.00000 0.00000 0.00000 ; imides
168 167 186 187 3 33.20422 0.00000 -33.20422 0.00000 0.00000 0.00000 ; methylguanidinium ion
168 176 177 178 3 33.20422 0.00000 -33.20422 0.00000 0.00000 0.00000 ; methylguanidinium ion
168 176 177 185 3 30.28798 -4.81160 -25.47638 0.00000 0.00000 0.00000 ; imides
169 168 176 177 3 33.20422 0.00000 -33.20422 0.00000 0.00000 0.00000 ; methylguanidinium ion
170 171 12650 12649 3 1.58992 4.76976 0.00000 -6.35968 0.00000 0.00000
170 171 12650 12651 3 1.58992 4.76976 0.00000 -6.35968 0.00000 0.00000
170 171 12650 12652 3 1.58992 4.76976 0.00000 -6.35968 0.00000 0.00000
171 12650 12649 12648 3 1.78866 3.49154 0.53555 -5.81576 0.00000 0.00000
171 12650 12649 12653 3 -1.26775 3.02085 1.74473 -3.49782 0.00000 0.00000
176 168 169 170 3 33.20422 0.00000 -33.20422 0.00000 0.00000 0.00000 ; methylguanidinium ion
176 168 169 174 3 20.50160 0.00000 -20.50160 0.00000 0.00000 0.00000 ; imides
176 177 185 186 3 30.28798 -4.81160 -25.47638 0.00000 0.00000 0.00000 ; imides
177 185 186 167 3 30.28798 -4.81160 -25.47638 0.00000 0.00000 0.00000 ; imides
177 185 186 187 3 33.20422 0.00000 -33.20422 0.00000 0.00000 0.00000 ; methylguanidinium ion
178 177 185 186 3 33.20422 0.00000 -33.20422 0.00000 0.00000 0.00000 ; methylguanidinium ion
179 180 3815 3814 3 1.58992 4.76976 0.00000 -6.35968 0.00000 0.00000
179 180 3815 3816 3 1.58992 4.76976 0.00000 -6.35968 0.00000 0.00000
179 180 3815 3817 3 1.58992 4.76976 0.00000 -6.35968 0.00000 0.00000
180 3815 3814 3813 3 1.78866 3.49154 0.53555 -5.81576 0.00000 0.00000
180 3815 3814 3818 3 -1.26775 3.02085 1.74473 -3.49782 0.00000 0.00000
185 177 178 179 3 33.20422 0.00000 -33.20422 0.00000 0.00000 0.00000 ; methylguanidinium ion
185 177 178 183 3 20.50160 0.00000 -20.50160 0.00000 0.00000 0.00000 ; imides
186 167 168 169 3 33.20422 0.00000 -33.20422 0.00000 0.00000 0.00000 ; methylguanidinium ion
186 167 168 176 3 30.28798 -4.81160 -25.47638 0.00000 0.00000 0.00000 ; imides
188 189 9704 9703 3 1.58992 4.76976 0.00000 -6.35968 0.00000 0.00000
188 189 9704 9705 3 1.58992 4.76976 0.00000 -6.35968 0.00000 0.00000
188 189 9704 9706 3 1.58992 4.76976 0.00000 -6.35968 0.00000 0.00000
189 9704 9703 9702 3 1.78866 3.49154 0.53555 -5.81576 0.00000 0.00000
189 9704 9703 9707 3 -1.26775 3.02085 1.74473 -3.49782 0.00000 0.00000
194 195 203 204 3 30.28798 -4.81160 -25.47638 0.00000 0.00000 0.00000 ; imides
194 213 214 215 3 33.20422 0.00000 -33.20422 0.00000 0.00000 0.00000 ; methylguanidinium ion
194 213 214 220 3 20.50160 0.00000 -20.50160 0.00000 0.00000 0.00000 ; imides
195 194 213 212 3 30.28798 -4.81160 -25.47638 0.00000 0.00000 0.00000 ; imides
195 194 213 214 3 33.20422 0.00000 -33.20422 0.00000 0.00000 0.00000 ; methylguanidinium ion
195 203 204 205 3 33.20422 0.00000 -33.20422 0.00000 0.00000 0.00000 ; methylguanidinium ion
195 203 204 212 3 30.28798 -4.81160 -25.47638 0.00000 0.00000 0.00000 ; imides
196 195 203 204 3 33.20422 0.00000 -33.20422 0.00000 0.00000 0.00000 ; methylguanidinium ion
197 198 12290 12289 3 1.58992 4.76976 0.00000 -6.35968 0.00000 0.00000
197 198 12290 12291 3 1.58992 4.76976 0.00000 -6.35968 0.00000 0.00000
197 198 12290 12292 3 1.58992 4.76976 0.00000 -6.35968 0.00000 0.00000
198 12290 12289 12288 3 1.78866 3.49154 0.53555 -5.81576 0.00000 0.00000
198 12290 12289 12293 3 -1.26775 3.02085 1.74473 -3.49782 0.00000 0.00000
203 195 196 197 3 33.20422 0.00000 -33.20422 0.00000 0.00000 0.00000 ; methylguanidinium ion
203 195 196 201 3 20.50160 0.00000 -20.50160 0.00000 0.00000 0.00000 ; imides
203 204 212 213 3 30.28798 -4.81160 -25.47638 0.00000 0.00000 0.00000 ; imides
204 212 213 194 3 30.28798 -4.81160 -25.47638 0.00000 0.00000 0.00000 ; imides
204 212 213 214 3 33.20422 0.00000 -33.20422 0.00000 0.00000 0.00000 ; methylguanidinium ion
205 204 212 213 3 33.20422 0.00000 -33.20422 0.00000 0.00000 0.00000 ; methylguanidinium ion
206 207 3509 3508 3 1.58992 4.76976 0.00000 -6.35968 0.00000 0.00000
206 207 3509 3510 3 1.58992 4.76976 0.00000 -6.35968 0.00000 0.00000
206 207 3509 3511 3 1.58992 4.76976 0.00000 -6.35968 0.00000 0.00000
207 3509 3508 3507 3 1.78866 3.49154 0.53555 -5.81576 0.00000 0.00000
207 3509 3508 3512 3 -1.26775 3.02085 1.74473 -3.49782 0.00000 0.00000
212 204 205 206 3 33.20422 0.00000 -33.20422 0.00000 0.00000 0.00000 ; methylguanidinium ion
212 204 205 210 3 20.50160 0.00000 -20.50160 0.00000 0.00000 0.00000 ; imides
213 194 195 196 3 33.20422 0.00000 -33.20422 0.00000 0.00000 0.00000 ; methylguanidinium ion
213 194 195 203 3 30.28798 -4.81160 -25.47638 0.00000 0.00000 0.00000 ; imides
222 223 231 232 3 30.28798 -4.81160 -25.47638 0.00000 0.00000 0.00000 ; imides
222 241 242 243 3 33.20422 0.00000 -33.20422 0.00000 0.00000 0.00000 ; methylguanidinium ion
222 241 242 247 3 20.50160 0.00000 -20.50160 0.00000 0.00000 0.00000 ; imides
223 222 241 240 3 30.28798 -4.81160 -25.47638 0.00000 0.00000 0.00000 ; imides
223 222 241 242 3 33.20422 0.00000 -33.20422 0.00000 0.00000 0.00000 ; methylguanidinium ion
223 231 232 233 3 33.20422 0.00000 -33.20422 0.00000 0.00000 0.00000 ; methylguanidinium ion
223 231 232 240 3 30.28798 -4.81160 -25.47638 0.00000 0.00000 0.00000 ; imides
224 223 231 232 3 33.20422 0.00000 -33.20422 0.00000 0.00000 0.00000 ; methylguanidinium ion
225 226 8853 8852 3 1.58992 4.76976 0.00000 -6.35968 0.00000 0.00000
225 226 8853 8854 3 1.58992 4.76976 0.00000 -6.35968 0.00000 0.00000
225 226 8853 8855 3 1.58992 4.76976 0.00000 -6.35968 0.00000 0.00000
226 8853 8852 8851 3 1.78866 3.49154 0.53555 -5.81576 0.00000 0.00000
226 8853 8852 8856 3 -1.26775 3.02085 1.74473 -3.49782 0.00000 0.00000
231 223 224 225 3 33.20422 0.00000 -33.20422 0.00000 0.00000 0.00000 ; methylguanidinium ion
231 223 224 229 3 20.50160 0.00000 -20.50160 0.00000 0.00000 0.00000 ; imides
231 232 240 241 3 30.28798 -4.81160 -25.47638 0.00000 0.00000 0.00000 ; imides
232 240 241 222 3 30.28798 -4.81160 -25.47638 0.00000 0.00000 0.00000 ; imides
232 240 241 242 3 33.20422 0.00000 -33.20422 0.00000 0.00000 0.00000 ; methylguanidinium ion
233 232 240 241 3 33.20422 0.00000 -33.20422 0.00000 0.00000 0.00000 ; methylguanidinium ion
234 235 6440 6439 3 1.58992 4.76976 0.00000 -6.35968 0.00000 0.00000
234 235 6440 6441 3 1.58992 4.76976 0.00000 -6.35968 0.00000 0.00000
234 235 6440 6442 3 1.58992 4.76976 0.00000 -6.35968 0.00000 0.00000
235 6440 6439 6438 3 1.78866 3.49154 0.53555 -5.81576 0.00000 0.00000
235 6440 6439 6443 3 -1.26775 3.02085 1.74473 -3.49782 0.00000 0.00000
240 232 233 234 3 33.20422 0.00000 -33.20422 0.00000 0.00000 0.00000 ; methylguanidinium ion
240 232 233 238 3 20.50160 0.00000 -20.50160 0.00000 0.00000 0.00000 ; imides
241 222 223 224 3 33.20422 0.00000 -33.20422 0.00000 0.00000 0.00000 ; methylguanidinium ion
241 222 223 231 3 30.28798 -4.81160 -25.47638 0.00000 0.00000 0.00000 ; imides
243 244 7824 7823 3 1.58992 4.76976 0.00000 -6.35968 0.00000 0.00000
243 244 7824 7825 3 1.58992 4.76976 0.00000 -6.35968 0.00000 0.00000
243 244 7824 7826 3 1.58992 4.76976 0.00000 -6.35968 0.00000 0.00000
244 7824 7823 7822 3 1.78866 3.49154 0.53555 -5.81576 0.00000 0.00000
244 7824 7823 7827 3 -1.26775 3.02085 1.74473 -3.49782 0.00000 0.00000
249 250 259 260 3 30.28798 -4.81160 -25.47638 0.00000 0.00000 0.00000 ; imides
249 269 270 271 3 33.20422 0.00000 -33.20422 0.00000 0.00000 0.00000 ; methylguanidinium ion
249 269 270 275 3 20.50160 0.00000 -20.50160 0.00000 0.00000 0.00000 ; imides
250 249 269 268 3 30.28798 -4.81160 -25.47638 0.00000 0.00000 0.00000 ; imides
250 249 269 270 3 33.20422 0.00000 -33.20422 0.00000 0.00000 0.00000 ; methylguanidinium ion
250 259 260 261 3 33.20422 0.00000 -33.20422 0.00000 0.00000 0.00000 ; methylguanidinium ion
250 259 260 268 3 30.28798 -4.81160 -25.47638 0.00000 0.00000 0.00000 ; imides
251 250 259 260 3 33.20422 0.00000 -33.20422 0.00000 0.00000 0.00000 ; methylguanidinium ion
259 250 251 252 3 33.20422 0.00000 -33.20422 0.00000 0.00000 0.00000 ; methylguanidinium ion
259 250 251 257 3 20.50160 0.00000 -20.50160 0.00000 0.00000 0.00000 ; imides
259 260 268 269 3 30.28798 -4.81160 -25.47638 0.00000 0.00000 0.00000 ; imides
260 268 269 249 3 30.28798 -4.81160 -25.47638 0.00000 0.00000 0.00000 ; imides
260 268 269 270 3 33.20422 0.00000 -33.20422 0.00000 0.00000 0.00000 ; methylguanidinium ion
261 260 268 269 3 33.20422 0.00000 -33.20422 0.00000 0.00000 0.00000 ; methylguanidinium ion
262 263 3106 3105 3 1.58992 4.76976 0.00000 -6.35968 0.00000 0.00000
262 263 3106 3107 3 1.58992 4.76976 0.00000 -6.35968 0.00000 0.00000
262 263 3106 3108 3 1.58992 4.76976 0.00000 -6.35968 0.00000 0.00000
263 3106 3105 3104 3 1.78866 3.49154 0.53555 -5.81576 0.00000 0.00000
263 3106 3105 3109 3 -1.26775 3.02085 1.74473 -3.49782 0.00000 0.00000
268 260 261 262 3 33.20422 0.00000 -33.20422 0.00000 0.00000 0.00000 ; methylguanidinium ion
268 260 261 266 3 20.50160 0.00000 -20.50160 0.00000 0.00000 0.00000 ; imides
269 249 250 251 3 33.20422 0.00000 -33.20422 0.00000 0.00000 0.00000 ; methylguanidinium ion
269 249 250 259 3 30.28798 -4.81160 -25.47638 0.00000 0.00000 0.00000 ; imides
271 272 4072 4071 3 1.58992 4.76976 0.00000 -6.35968 0.00000 0.00000
271 272 4072 4073 3 1.58992 4.76976 0.00000 -6.35968 0.00000 0.00000
271 272 4072 4074 3 1.58992 4.76976 0.00000 -6.35968 0.00000 0.00000
272 4072 4071 4070 3 1.78866 3.49154 0.53555 -5.81576 0.00000 0.00000
272 4072 4071 4075 3 -1.26775 3.02085 1.74473 -3.49782 0.00000 0.00000
277 278 286 287 3 30.28798 -4.81160 -25.47638 0.00000 0.00000 0.00000 ; imides
277 296 297 298 3 33.20422 0.00000 -33.20422 0.00000 0.00000 0.00000 ; methylguanidinium ion
277 296 297 302 3 20.50160 0.00000 -20.50160 0.00000 0.00000 0.00000 ; imides
278 277 296 295 3 30.28798 -4.81160 -25.47638 0.00000 0.00000 0.00000 ; imides
278 277 296 297 3 33.20422 0.00000 -33.20422 0.00000 0.00000 0.00000 ; methylguanidinium ion
278 286 287 288 3 33.20422 0.00000 -33.20422 0.00000 0.00000 0.00000 ; methylguanidinium ion
278 286 287 295 3 30.28798 -4.81160 -25.47638 0.00000 0.00000 0.00000 ; imides
279 278 286 287 3 33.20422 0.00000 -33.20422 0.00000 0.00000 0.00000 ; methylguanidinium ion
280 281 7799 7798 3 1.58992 4.76976 0.00000 -6.35968 0.00000 0.00000
280 281 7799 7800 3 1.58992 4.76976 0.00000 -6.35968 0.00000 0.00000
280 281 7799 7801 3 1.58992 4.76976 0.00000 -6.35968 0.00000 0.00000
281 7799 7798 7797 3 1.78866 3.49154 0.53555 -5.81576 0.00000 0.00000
281 7799 7798 7802 3 -1.26775 3.02085 1.74473 -3.49782 0.00000 0.00000
286 278 279 280 3 33.20422 0.00000 -33.20422 0.00000 0.00000 0.00000 ; methylguanidinium ion
286 278 279 284 3 20.50160 0.00000 -20.50160 0.00000 0.00000 0.00000 ; imides
286 287 295 296 3 30.28798 -4.81160 -25.47638 0.00000 0.00000 0.00000 ; imides
287 295 296 277 3 30.28798 -4.81160 -25.47638 0.00000 0.00000 0.00000 ; imides
287 295 296 297 3 33.20422 0.00000 -33.20422 0.00000 0.00000 0.00000 ; methylguanidinium ion
288 287 295 296 3 33.20422 0.00000 -33.20422 0.00000 0.00000 0.00000 ; methylguanidinium ion
289 290 2102 2101 3 1.58992 4.76976 0.00000 -6.35968 0.00000 0.00000
289 290 2102 2103 3 1.58992 4.76976 0.00000 -6.35968 0.00000 0.00000
289 290 2102 2104 3 1.58992 4.76976 0.00000 -6.35968 0.00000 0.00000
290 2102 2101 2100 3 1.78866 3.49154 0.53555 -5.81576 0.00000 0.00000
290 2102 2101 2105 3 -1.26775 3.02085 1.74473 -3.49782 0.00000 0.00000
295 287 288 289 3 33.20422 0.00000 -33.20422 0.00000 0.00000 0.00000 ; methylguanidinium ion
295 287 288 293 3 20.50160 0.00000 -20.50160 0.00000 0.00000 0.00000 ; imides
296 277 278 279 3 33.20422 0.00000 -33.20422 0.00000 0.00000 0.00000 ; methylguanidinium ion
296 277 278 286 3 30.28798 -4.81160 -25.47638 0.00000 0.00000 0.00000 ; imides
298 299 7271 7270 3 1.58992 4.76976 0.00000 -6.35968 0.00000 0.00000
298 299 7271 7272 3 1.58992 4.76976 0.00000 -6.35968 0.00000 0.00000
298 299 7271 7273 3 1.58992 4.76976 0.00000 -6.35968 0.00000 0.00000
299 7271 7270 7269 3 1.78866 3.49154 0.53555 -5.81576 0.00000 0.00000
299 7271 7270 7274 3 -1.26775 3.02085 1.74473 -3.49782 0.00000 0.00000
304 305 313 314 3 30.28798 -4.81160 -25.47638 0.00000 0.00000 0.00000 ; imides
304 323 324 325 3 33.20422 0.00000 -33.20422 0.00000 0.00000 0.00000 ; methylguanidinium ion
304 323 324 329 3 20.50160 0.00000 -20.50160 0.00000 0.00000 0.00000 ; imides
305 304 323 322 3 30.28798 -4.81160 -25.47638 0.00000 0.00000 0.00000 ; imides
305 304 323 324 3 33.20422 0.00000 -33.20422 0.00000 0.00000 0.00000 ; methylguanidinium ion
305 313 314 315 3 33.20422 0.00000 -33.20422 0.00000 0.00000 0.00000 ; methylguanidinium ion
305 313 314 322 3 30.28798 -4.81160 -25.47638 0.00000 0.00000 0.00000 ; imides
306 305 313 314 3 33.20422 0.00000 -33.20422 0.00000 0.00000 0.00000 ; methylguanidinium ion
307 308 5371 5370 3 1.58992 4.76976 0.00000 -6.35968 0.00000 0.00000
307 308 5371 5372 3 1.58992 4.76976 0.00000 -6.35968 0.00000 0.00000
307 308 5371 5373 3 1.58992 4.76976 0.00000 -6.35968 0.00000 0.00000
308 5371 5370 5369 3 1.78866 3.49154 0.53555 -5.81576 0.00000 0.00000
308 5371 5370 5374 3 -1.26775 3.02085 1.74473 -3.49782 0.00000 0.00000
313 305 306 307 3 33.20422 0.00000 -33.20422 0.00000 0.00000 0.00000 ; methylguanidinium ion
313 305 306 311 3 20.50160 0.00000 -20.50160 0.00000 0.00000 0.00000 ; imides
313 314 322 323 3 30.28798 -4.81160 -25.47638 0.00000 0.00000 0.00000 ; imides
314 322 323 304 3 30.28798 -4.81160 -25.47638 0.00000 0.00000 0.00000 ; imides
314 322 323 324 3 33.20422 0.00000 -33.20422 0.00000 0.00000 0.00000 ; methylguanidinium ion
315 314 322 323 3 33.20422 0.00000 -33.20422 0.00000 0.00000 0.00000 ; methylguanidinium ion
316 317 8870 8869 3 1.58992 4.76976 0.00000 -6.35968 0.00000 0.00000
316 317 8870 8871 3 1.58992 4.76976 0.00000 -6.35968 0.00000 0.00000
316 317 8870 8872 3 1.58992 4.76976 0.00000 -6.35968 0.00000 0.00000
317 8870 8869 8868 3 1.78866 3.49154 0.53555 -5.81576 0.00000 0.00000
317 8870 8869 8873 3 -1.26775 3.02085 1.74473 -3.49782 0.00000 0.00000
322 314 315 316 3 33.20422 0.00000 -33.20422 0.00000 0.00000 0.00000 ; methylguanidinium ion
322 314 315 320 3 20.50160 0.00000 -20.50160 0.00000 0.00000 0.00000 ; imides
323 304 305 306 3 33.20422 0.00000 -33.20422 0.00000 0.00000 0.00000 ; methylguanidinium ion
323 304 305 313 3 30.28798 -4.81160 -25.47638 0.00000 0.00000 0.00000 ; imides
325 326 4491 4490 3 1.58992 4.76976 0.00000 -6.35968 0.00000 0.00000
325 326 4491 4492 3 1.58992 4.76976 0.00000 -6.35968 0.00000 0.00000
325 326 4491 4493 3 1.58992 4.76976 0.00000 -6.35968 0.00000 0.00000
326 4491 4490 4489 3 1.78866 3.49154 0.53555 -5.81576 0.00000 0.00000
326 4491 4490 4494 3 -1.26775 3.02085 1.74473 -3.49782 0.00000 0.00000
331 332 340 341 3 30.28798 -4.81160 -25.47638 0.00000 0.00000 0.00000 ; imides
331 351 352 353 3 33.20422 0.00000 -33.20422 0.00000 0.00000 0.00000 ; methylguanidinium ion
331 351 352 357 3 20.50160 0.00000 -20.50160 0.00000 0.00000 0.00000 ; imides
332 331 351 350 3 30.28798 -4.81160 -25.47638 0.00000 0.00000 0.00000 ; imides
332 331 351 352 3 33.20422 0.00000 -33.20422 0.00000 0.00000 0.00000 ; methylguanidinium ion
332 340 341 342 3 33.20422 0.00000 -33.20422 0.00000 0.00000 0.00000 ; methylguanidinium ion
332 340 341 350 3 30.28798 -4.81160 -25.47638 0.00000 0.00000 0.00000 ; imides
333 332 340 341 3 33.20422 0.00000 -33.20422 0.00000 0.00000 0.00000 ; methylguanidinium ion
334 335 3174 3173 3 1.58992 4.76976 0.00000 -6.35968 0.00000 0.00000
334 335 3174 3175 3 1.58992 4.76976 0.00000 -6.35968 0.00000 0.00000
334 335 3174 3176 3 1.58992 4.76976 0.00000 -6.35968 0.00000 0.00000
335 3174 3173 3172 3 1.78866 3.49154 0.53555 -5.81576 0.00000 0.00000
335 3174 3173 3177 3 -1.26775 3.02085 1.74473 -3.49782 0.00000 0.00000
340 332 333 334 3 33.20422 0.00000 -33.20422 0.00000 0.00000 0.00000 ; methylguanidinium ion
340 332 333 338 3 20.50160 0.00000 -20.50160 0.00000 0.00000 0.00000 ; imides
340 341 350 351 3 30.28798 -4.81160 -25.47638 0.00000 0.00000 0.00000 ; imides
341 350 351 331 3 30.28798 -4.81160 -25.47638 0.00000 0.00000 0.00000 ; imides
341 350 351 352 3 33.20422 0.00000 -33.20422 0.00000 0.00000 0.00000 ; methylguanidinium ion
342 341 350 351 3 33.20422 0.00000 -33.20422 0.00000 0.00000 0.00000 ; methylguanidinium ion
350 341 342 343 3 33.20422 0.00000 -33.20422 0.00000 0.00000 0.00000 ; methylguanidinium ion
350 341 342 348 3 20.50160 0.00000 -20.50160 0.00000 0.00000 0.00000 ; imides
351 331 332 333 3 33.20422 0.00000 -33.20422 0.00000 0.00000 0.00000 ; methylguanidinium ion
351 331 332 340 3 30.28798 -4.81160 -25.47638 0.00000 0.00000 0.00000 ; imides
353 354 799 798 3 1.58992 4.76976 0.00000 -6.35968 0.00000 0.00000
353 354 799 800 3 1.58992 4.76976 0.00000 -6.35968 0.00000 0.00000
353 354 799 801 3 1.58992 4.76976 0.00000 -6.35968 0.00000 0.00000
354 799 798 797 3 1.78866 3.49154 0.53555 -5.81576 0.00000 0.00000
354 799 798 802 3 -1.26775 3.02085 1.74473 -3.49782 0.00000 0.00000
359 360 368 369 3 30.28798 -4.81160 -25.47638 0.00000 0.00000 0.00000 ; imides
359 379 380 381 3 33.20422 0.00000 -33.20422 0.00000 0.00000 0.00000 ; methylguanidinium ion
359 379 380 385 3 20.50160 0.00000 -20.50160 0.00000 0.00000 0.00000 ; imides
360 359 379 378 3 30.28798 -4.81160 -25.47638 0.00000 0.00000 0.00000 ; imides
360 359 379 380 3 33.20422 0.00000 -33.20422 0.00000 0.00000 0.00000 ; methylguanidinium ion
360 368 369 370 3 33.20422 0.00000 -33.20422 0.00000 0.00000 0.00000 ; methylguanidinium ion
360 368 369 378 3 30.28798 -4.81160 -25.47638 0.00000 0.00000 0.00000 ; imides
361 360 368 369 3 33.20422 0.00000 -33.20422 0.00000 0.00000 0.00000 ; methylguanidinium ion
362 363 8811 8810 3 1.58992 4.76976 0.00000 -6.35968 0.00000 0.00000
362 363 8811 8812 3 1.58992 4.76976 0.00000 -6.35968 0.00000 0.00000
362 363 8811 8813 3 1.58992 4.76976 0.00000 -6.35968 0.00000 0.00000
363 8811 8810 8809 3 1.78866 3.49154 0.53555 -5.81576 0.00000 0.00000
363 8811 8810 8814 3 -1.26775 3.02085 1.74473 -3.49782 0.00000 0.00000
368 360 361 362 3 33.20422 0.00000 -33.20422 0.00000 0.00000 0.00000 ; methylguanidinium ion
368 360 361 366 3 20.50160 0.00000 -20.50160 0.00000 0.00000 0.00000 ; imides
368 369 378 379 3 30.28798 -4.81160 -25.47638 0.00000 0.00000 0.00000 ; imides
369 378 379 359 3 30.28798 -4.81160 -25.47638 0.00000 0.00000 0.00000 ; imides
369 378 379 380 3 33.20422 0.00000 -33.20422 0.00000 0.00000 0.00000 ; methylguanidinium ion
370 369 378 379 3 33.20422 0.00000 -33.20422 0.00000 0.00000 0.00000 ; methylguanidinium ion
378 369 370 371 3 33.20422 0.00000 -33.20422 0.00000 0.00000 0.00000 ; methylguanidinium ion
378 369 370 376 3 20.50160 0.00000 -20.50160 0.00000 0.00000 0.00000 ; imides
379 359 360 361 3 33.20422 0.00000 -33.20422 0.00000 0.00000 0.00000 ; methylguanidinium ion
379 359 360 368 3 30.28798 -4.81160 -25.47638 0.00000 0.00000 0.00000 ; imides
381 382 6065 6064 3 1.58992 4.76976 0.00000 -6.35968 0.00000 0.00000
381 382 6065 6066 3 1.58992 4.76976 0.00000 -6.35968 0.00000 0.00000
381 382 6065 6067 3 1.58992 4.76976 0.00000 -6.35968 0.00000 0.00000
382 6065 6064 6063 3 1.78866 3.49154 0.53555 -5.81576 0.00000 0.00000
382 6065 6064 6068 3 -1.26775 3.02085 1.74473 -3.49782 0.00000 0.00000
387 388 396 397 3 30.28798 -4.81160 -25.47638 0.00000 0.00000 0.00000 ; imides
387 407 408 409 3 33.20422 0.00000 -33.20422 0.00000 0.00000 0.00000 ; methylguanidinium ion
387 407 408 413 3 20.50160 0.00000 -20.50160 0.00000 0.00000 0.00000 ; imides
388 387 407 406 3 30.28798 -4.81160 -25.47638 0.00000 0.00000 0.00000 ; imides
388 387 407 408 3 33.20422 0.00000 -33.20422 0.00000 0.00000 0.00000 ; methylguanidinium ion
388 396 397 398 3 33.20422 0.00000 -33.20422 0.00000 0.00000 0.00000 ; methylguanidinium ion
388 396 397 406 3 30.28798 -4.81160 -25.47638 0.00000 0.00000 0.00000 ; imides
389 388 396 397 3 33.20422 0.00000 -33.20422 0.00000 0.00000 0.00000 ; methylguanidinium ion
390 391 12854 12853 3 1.58992 4.76976 0.00000 -6.35968 0.00000 0.00000
390 391 12854 12855 3 1.58992 4.76976 0.00000 -6.35968 0.00000 0.00000
390 391 12854 12856 3 1.58992 4.76976 0.00000 -6.35968 0.00000 0.00000
391 12854 12853 12852 3 1.78866 3.49154 0.53555 -5.81576 0.00000 0.00000
391 12854 12853 12857 3 -1.26775 3.02085 1.74473 -3.49782 0.00000 0.00000
396 388 389 390 3 33.20422 0.00000 -33.20422 0.00000 0.00000 0.00000 ; methylguanidinium ion
396 388 389 394 3 20.50160 0.00000 -20.50160 0.00000 0.00000 0.00000 ; imides
396 397 406 407 3 30.28798 -4.81160 -25.47638 0.00000 0.00000 0.00000 ; imides
397 406 407 387 3 30.28798 -4.81160 -25.47638 0.00000 0.00000 0.00000 ; imides
397 406 407 408 3 33.20422 0.00000 -33.20422 0.00000 0.00000 0.00000 ; methylguanidinium ion
398 397 406 407 3 33.20422 0.00000 -33.20422 0.00000 0.00000 0.00000 ; methylguanidinium ion
406 397 398 399 3 33.20422 0.00000 -33.20422 0.00000 0.00000 0.00000 ; methylguanidinium ion
406 397 398 404 3 20.50160 0.00000 -20.50160 0.00000 0.00000 0.00000 ; imides
407 387 388 389 3 33.20422 0.00000 -33.20422 0.00000 0.00000 0.00000 ; methylguanidinium ion
407 387 388 396 3 30.28798 -4.81160 -25.47638 0.00000 0.00000 0.00000 ; imides
409 410 10191 10190 3 1.58992 4.76976 0.00000 -6.35968 0.00000 0.00000
409 410 10191 10192 3 1.58992 4.76976 0.00000 -6.35968 0.00000 0.00000
409 410 10191 10193 3 1.58992 4.76976 0.00000 -6.35968 0.00000 0.00000
410 10191 10190 10189 3 1.78866 3.49154 0.53555 -5.81576 0.00000 0.00000
410 10191 10190 10194 3 -1.26775 3.02085 1.74473 -3.49782 0.00000 0.00000
415 416 424 425 3 30.28798 -4.81160 -25.47638 0.00000 0.00000 0.00000 ; imides
415 434 435 436 3 33.20422 0.00000 -33.20422 0.00000 0.00000 0.00000 ; methylguanidinium ion
415 434 435 440 3 20.50160 0.00000 -20.50160 0.00000 0.00000 0.00000 ; imides
416 415 434 433 3 30.28798 -4.81160 -25.47638 0.00000 0.00000 0.00000 ; imides
416 415 434 435 3 33.20422 0.00000 -33.20422 0.00000 0.00000 0.00000 ; methylguanidinium ion
416 424 425 426 3 33.20422 0.00000 -33.20422 0.00000 0.00000 0.00000 ; methylguanidinium ion
416 424 425 433 3 30.28798 -4.81160 -25.47638 0.00000 0.00000 0.00000 ; imides
417 416 424 425 3 33.20422 0.00000 -33.20422 0.00000 0.00000 0.00000 ; methylguanidinium ion
418 419 3157 3156 3 1.58992 4.76976 0.00000 -6.35968 0.00000 0.00000
418 419 3157 3158 3 1.58992 4.76976 0.00000 -6.35968 0.00000 0.00000
418 419 3157 3159 3 1.58992 4.76976 0.00000 -6.35968 0.00000 0.00000
419 3157 3156 3155 3 1.78866 3.49154 0.53555 -5.81576 0.00000 0.00000
419 3157 3156 3160 3 -1.26775 3.02085 1.74473 -3.49782 0.00000 0.00000
424 416 417 418 3 33.20422 0.00000 -33.20422 0.00000 0.00000 0.00000 ; methylguanidinium ion
424 416 417 422 3 20.50160 0.00000 -20.50160 0.00000 0.00000 0.00000 ; imides
424 425 433 434 3 30.28798 -4.81160 -25.47638 0.00000 0.00000 0.00000 ; imides
425 433 434 415 3 30.28798 -4.81160 -25.47638 0.00000 0.00000 0.00000 ; imides
425 433 434 435 3 33.20422 0.00000 -33.20422 0.00000 0.00000 0.00000 ; methylguanidinium ion
426 425 433 434 3 33.20422 0.00000 -33.20422 0.00000 0.00000 0.00000 ; methylguanidinium ion
427 428 9680 9679 3 1.58992 4.76976 0.00000 -6.35968 0.00000 0.00000
427 428 9680 9681 3 1.58992 4.76976 0.00000 -6.35968 0.00000 0.00000
427 428 9680 9682 3 1.58992 4.76976 0.00000 -6.35968 0.00000 0.00000
428 9680 9679 9678 3 1.78866 3.49154 0.53555 -5.81576 0.00000 0.00000
428 9680 9679 9683 3 -1.26775 3.02085 1.74473 -3.49782 0.00000 0.00000
433 425 426 427 3 33.20422 0.00000 -33.20422 0.00000 0.00000 0.00000 ; methylguanidinium ion
433 425 426 431 3 20.50160 0.00000 -20.50160 0.00000 0.00000 0.00000 ; imides
434 415 416 417 3 33.20422 0.00000 -33.20422 0.00000 0.00000 0.00000 ; methylguanidinium ion
434 415 416 424 3 30.28798 -4.81160 -25.47638 0.00000 0.00000 0.00000 ; imides
436 437 11694 11693 3 1.58992 4.76976 0.00000 -6.35968 0.00000 0.00000
436 437 11694 11695 3 1.58992 4.76976 0.00000 -6.35968 0.00000 0.00000
436 437 11694 11696 3 1.58992 4.76976 0.00000 -6.35968 0.00000 0.00000
437 11694 11693 11692 3 1.78866 3.49154 0.53555 -5.81576 0.00000 0.00000
437 11694 11693 11697 3 -1.26775 3.02085 1.74473 -3.49782 0.00000 0.00000
442 443 451 452 3 30.28798 -4.81160 -25.47638 0.00000 0.00000 0.00000 ; imides
442 461 462 463 3 33.20422 0.00000 -33.20422 0.00000 0.00000 0.00000 ; methylguanidinium ion
442 461 462 467 3 20.50160 0.00000 -20.50160 0.00000 0.00000 0.00000 ; imides
443 442 461 460 3 30.28798 -4.81160 -25.47638 0.00000 0.00000 0.00000 ; imides
443 442 461 462 3 33.20422 0.00000 -33.20422 0.00000 0.00000 0.00000 ; methylguanidinium ion
443 451 452 453 3 33.20422 0.00000 -33.20422 0.00000 0.00000 0.00000 ; methylguanidinium ion
443 451 452 460 3 30.28798 -4.81160 -25.47638 0.00000 0.00000 0.00000 ; imides
444 443 451 452 3 33.20422 0.00000 -33.20422 0.00000 0.00000 0.00000 ; methylguanidinium ion
445 446 5026 5025 3 1.58992 4.76976 0.00000 -6.35968 0.00000 0.00000
445 446 5026 5027 3 1.58992 4.76976 0.00000 -6.35968 0.00000 0.00000
445 446 5026 5028 3 1.58992 4.76976 0.00000 -6.35968 0.00000 0.00000
446 5026 5025 5024 3 1.78866 3.49154 0.53555 -5.81576 0.00000 0.00000
446 5026 5025 5029 3 -1.26775 3.02085 1.74473 -3.49782 0.00000 0.00000
451 443 444 445 3 33.20422 0.00000 -33.20422 0.00000 0.00000 0.00000 ; methylguanidinium ion
451 443 444 449 3 20.50160 0.00000 -20.50160 0.00000 0.00000 0.00000 ; imides
451 452 460 461 3 30.28798 -4.81160 -25.47638 0.00000 0.00000 0.00000 ; imides
452 460 461 442 3 30.28798 -4.81160 -25.47638 0.00000 0.00000 0.00000 ; imides
452 460 461 462 3 33.20422 0.00000 -33.20422 0.00000 0.00000 0.00000 ; methylguanidinium ion
453 452 460 461 3 33.20422 0.00000 -33.20422 0.00000 0.00000 0.00000 ; methylguanidinium ion
454 455 7772 7771 3 1.58992 4.76976 0.00000 -6.35968 0.00000 0.00000
454 455 7772 7773 3 1.58992 4.76976 0.00000 -6.35968 0.00000 0.00000
454 455 7772 7774 3 1.58992 4.76976 0.00000 -6.35968 0.00000 0.00000
455 7772 7771 7770 3 1.78866 3.49154 0.53555 -5.81576 0.00000 0.00000
455 7772 7771 7775 3 -1.26775 3.02085 1.74473 -3.49782 0.00000 0.00000
460 452 453 454 3 33.20422 0.00000 -33.20422 0.00000 0.00000 0.00000 ; methylguanidinium ion
460 452 453 458 3 20.50160 0.00000 -20.50160 0.00000 0.00000 0.00000 ; imides
461 442 443 444 3 33.20422 0.00000 -33.20422 0.00000 0.00000 0.00000 ; methylguanidinium ion
461 442 443 451 3 30.28798 -4.81160 -25.47638 0.00000 0.00000 0.00000 ; imides
463 464 526 525 3 1.58992 4.76976 0.00000 -6.35968 0.00000 0.00000
463 464 526 527 3 1.58992 4.76976 0.00000 -6.35968 0.00000 0.00000
463 464 526 528 3 1.58992 4.76976 0.00000 -6.35968 0.00000 0.00000
464 526 525 524 3 1.78866 3.49154 0.53555 -5.81576 0.00000 0.00000
464 526 525 529 3 -1.26775 3.02085 1.74473 -3.49782 0.00000 0.00000
469 470 478 479 3 30.28798 -4.81160 -25.47638 0.00000 0.00000 0.00000 ; imides
469 488 489 490 3 33.20422 0.00000 -33.20422 0.00000 0.00000 0.00000 ; methylguanidinium ion
469 488 489 494 3 20.50160 0.00000 -20.50160 0.00000 0.00000 0.00000 ; imides
470 469 488 487 3 30.28798 -4.81160 -25.47638 0.00000 0.00000 0.00000 ; imides
470 469 488 489 3 33.20422 0.00000 -33.20422 0.00000 0.00000 0.00000 ; methylguanidinium ion
470 478 479 480 3 33.20422 0.00000 -33.20422 0.00000 0.00000 0.00000 ; methylguanidinium ion
470 478 479 487 3 30.28798 -4.81160 -25.47638 0.00000 0.00000 0.00000 ; imides
471 470 478 479 3 33.20422 0.00000 -33.20422 0.00000 0.00000 0.00000 ; methylguanidinium ion
472 473 4799 4798 3 1.58992 4.76976 0.00000 -6.35968 0.00000 0.00000
472 473 4799 4800 3 1.58992 4.76976 0.00000 -6.35968 0.00000 0.00000
472 473 4799 4801 3 1.58992 4.76976 0.00000 -6.35968 0.00000 0.00000
473 4799 4798 4797 3 1.78866 3.49154 0.53555 -5.81576 0.00000 0.00000
473 4799 4798 4802 3 -1.26775 3.02085 1.74473 -3.49782 0.00000 0.00000
478 470 471 472 3 33.20422 0.00000 -33.20422 0.00000 0.00000 0.00000 ; methylguanidinium ion
478 470 471 476 3 20.50160 0.00000 -20.50160 0.00000 0.00000 0.00000 ; imides
478 479 487 488 3 30.28798 -4.81160 -25.47638 0.00000 0.00000 0.00000 ; imides
479 487 488 469 3 30.28798 -4.81160 -25.47638 0.00000 0.00000 0.00000 ; imides
479 487 488 489 3 33.20422 0.00000 -33.20422 0.00000 0.00000 0.00000 ; methylguanidinium ion
480 479 487 488 3 33.20422 0.00000 -33.20422 0.00000 0.00000 0.00000 ; methylguanidinium ion
481 482 7065 7064 3 1.58992 4.76976 0.00000 -6.35968 0.00000 0.00000
481 482 7065 7066 3 1.58992 4.76976 0.00000 -6.35968 0.00000 0.00000
481 482 7065 7067 3 1.58992 4.76976 0.00000 -6.35968 0.00000 0.00000
482 7065 7064 7063 3 1.78866 3.49154 0.53555 -5.81576 0.00000 0.00000
482 7065 7064 7068 3 -1.26775 3.02085 1.74473 -3.49782 0.00000 0.00000
487 479 480 481 3 33.20422 0.00000 -33.20422 0.00000 0.00000 0.00000 ; methylguanidinium ion
487 479 480 485 3 20.50160 0.00000 -20.50160 0.00000 0.00000 0.00000 ; imides
488 469 470 471 3 33.20422 0.00000 -33.20422 0.00000 0.00000 0.00000 ; methylguanidinium ion
488 469 470 478 3 30.28798 -4.81160 -25.47638 0.00000 0.00000 0.00000 ; imides
490 491 11507 11506 3 1.58992 4.76976 0.00000 -6.35968 0.00000 0.00000
490 491 11507 11508 3 1.58992 4.76976 0.00000 -6.35968 0.00000 0.00000
490 491 11507 11509 3 1.58992 4.76976 0.00000 -6.35968 0.00000 0.00000
491 11507 11506 11505 3 1.78866 3.49154 0.53555 -5.81576 0.00000 0.00000
491 11507 11506 11510 3 -1.26775 3.02085 1.74473 -3.49782 0.00000 0.00000
496 497 505 506 3 30.28798 -4.81160 -25.47638 0.00000 0.00000 0.00000 ; imides
496 515 516 517 3 33.20422 0.00000 -33.20422 0.00000 0.00000 0.00000 ; methylguanidinium ion
496 515 516 521 3 20.50160 0.00000 -20.50160 0.00000 0.00000 0.00000 ; imides
497 496 515 514 3 30.28798 -4.81160 -25.47638 0.00000 0.00000 0.00000 ; imides
497 496 515 516 3 33.20422 0.00000 -33.20422 0.00000 0.00000 0.00000 ; methylguanidinium ion
497 505 506 507 3 33.20422 0.00000 -33.20422 0.00000 0.00000 0.00000 ; methylguanidinium ion
497 505 506 514 3 30.28798 -4.81160 -25.47638 0.00000 0.00000 0.00000 ; imides
498 497 505 506 3 33.20422 0.00000 -33.20422 0.00000 0.00000 0.00000 ; methylguanidinium ion
499 500 8699 8698 3 1.58992 4.76976 0.00000 -6.35968 0.00000 0.00000
499 500 8699 8700 3 1.58992 4.76976 0.00000 -6.35968 0.00000 0.00000
499 500 8699 8701 3 1.58992 4.76976 0.00000 -6.35968 0.00000 0.00000
500 8699 8698 8697 3 1.78866 3.49154 0.53555 -5.81576 0.00000 0.00000
500 8699 8698 8702 3 -1.26775 3.02085 1.74473 -3.49782 0.00000 0.00000
505 497 498 499 3 33.20422 0.00000 -33.20422 0.00000 0.00000 0.00000 ; methylguanidinium ion
505 497 498 503 3 20.50160 0.00000 -20.50160 0.00000 0.00000 0.00000 ; imides
505 506 514 515 3 30.28798 -4.81160 -25.47638 0.00000 0.00000 0.00000 ; imides
506 514 515 496 3 30.28798 -4.81160 -25.47638 0.00000 0.00000 0.00000 ; imides
506 514 515 516 3 33.20422 0.00000 -33.20422 0.00000 0.00000 0.00000 ; methylguanidinium ion
507 506 514 515 3 33.20422 0.00000 -33.20422 0.00000 0.00000 0.00000 ; methylguanidinium ion
508 509 8161 8160 3 1.58992 4.76976 0.00000 -6.35968 0.00000 0.00000
508 509 8161 8162 3 1.58992 4.76976 0.00000 -6.35968 0.00000 0.00000
508 509 8161 8163 3 1.58992 4.76976 0.00000 -6.35968 0.00000 0.00000
509 8161 8160 8159 3 1.78866 3.49154 0.53555 -5.81576 0.00000 0.00000
509 8161 8160 8164 3 -1.26775 3.02085 1.74473 -3.49782 0.00000 0.00000
514 506 507 508 3 33.20422 0.00000 -33.20422 0.00000 0.00000 0.00000 ; methylguanidinium ion
514 506 507 512 3 20.50160 0.00000 -20.50160 0.00000 0.00000 0.00000 ; imides
515 496 497 498 3 33.20422 0.00000 -33.20422 0.00000 0.00000 0.00000 ; methylguanidinium ion
515 496 497 505 3 30.28798 -4.81160 -25.47638 0.00000 0.00000 0.00000 ; imides
517 518 7609 7608 3 1.58992 4.76976 0.00000 -6.35968 0.00000 0.00000
517 518 7609 7610 3 1.58992 4.76976 0.00000 -6.35968 0.00000 0.00000
517 518 7609 7611 3 1.58992 4.76976 0.00000 -6.35968 0.00000 0.00000
518 7609 7608 7607 3 1.78866 3.49154 0.53555 -5.81576 0.00000 0.00000
518 7609 7608 7612 3 -1.26775 3.02085 1.74473 -3.49782 0.00000 0.00000
523 524 531 532 3 30.28798 -4.81160 -25.47638 0.00000 0.00000 0.00000 ; imides
523 541 542 543 3 33.20422 0.00000 -33.20422 0.00000 0.00000 0.00000 ; methylguanidinium ion
523 541 542 547 3 20.50160 0.00000 -20.50160 0.00000 0.00000 0.00000 ; imides
524 523 541 540 3 30.28798 -4.81160 -25.47638 0.00000 0.00000 0.00000 ; imides
524 523 541 542 3 33.20422 0.00000 -33.20422 0.00000 0.00000 0.00000 ; methylguanidinium ion
524 531 532 533 3 33.20422 0.00000 -33.20422 0.00000 0.00000 0.00000 ; methylguanidinium ion
524 531 532 540 3 30.28798 -4.81160 -25.47638 0.00000 0.00000 0.00000 ; imides
525 524 531 532 3 33.20422 0.00000 -33.20422 0.00000 0.00000 0.00000 ; methylguanidinium ion
526 464 463 462 3 1.58992 4.76976 0.00000 -6.35968 0.00000 0.00000
526 464 463 465 3 1.58992 4.76976 0.00000 -6.35968 0.00000 0.00000
526 464 463 466 3 1.58992 4.76976 0.00000 -6.35968 0.00000 0.00000
531 524 525 526 3 33.20422 0.00000 -33.20422 0.00000 0.00000 0.00000 ; methylguanidinium ion
531 524 525 529 3 20.50160 0.00000 -20.50160 0.00000 0.00000 0.00000 ; imides
531 532 540 541 3 30.28798 -4.81160 -25.47638 0.00000 0.00000 0.00000 ; imides
532 540 541 523 3 30.28798 -4.81160 -25.47638 0.00000 0.00000 0.00000 ; imides
532 540 541 542 3 33.20422 0.00000 -33.20422 0.00000 0.00000 0.00000 ; methylguanidinium ion
533 532 540 541 3 33.20422 0.00000 -33.20422 0.00000 0.00000 0.00000 ; methylguanidinium ion
534 535 9630 9629 3 1.58992 4.76976 0.00000 -6.35968 0.00000 0.00000
534 535 9630 9631 3 1.58992 4.76976 0.00000 -6.35968 0.00000 0.00000
534 535 9630 9632 3 1.58992 4.76976 0.00000 -6.35968 0.00000 0.00000
535 9630 9629 9628 3 1.78866 3.49154 0.53555 -5.81576 0.00000 0.00000
535 9630 9629 9633 3 -1.26775 3.02085 1.74473 -3.49782 0.00000 0.00000
540 532 533 534 3 33.20422 0.00000 -33.20422 0.00000 0.00000 0.00000 ; methylguanidinium ion
540 532 533 538 3 20.50160 0.00000 -20.50160 0.00000 0.00000 0.00000 ; imides
541 523 524 525 3 33.20422 0.00000 -33.20422 0.00000 0.00000 0.00000 ; methylguanidinium ion
541 523 524 531 3 30.28798 -4.81160 -25.47638 0.00000 0.00000 0.00000 ; imides
543 544 7721 7720 3 1.58992 4.76976 0.00000 -6.35968 0.00000 0.00000
543 544 7721 7722 3 1.58992 4.76976 0.00000 -6.35968 0.00000 0.00000
543 544 7721 7723 3 1.58992 4.76976 0.00000 -6.35968 0.00000 0.00000
544 7721 7720 7719 3 1.78866 3.49154 0.53555 -5.81576 0.00000 0.00000
544 7721 7720 7724 3 -1.26775 3.02085 1.74473 -3.49782 0.00000 0.00000
549 550 558 559 3 30.28798 -4.81160 -25.47638 0.00000 0.00000 0.00000 ; imides
549 569 570 571 3 33.20422 0.00000 -33.20422 0.00000 0.00000 0.00000 ; methylguanidinium ion
549 569 570 575 3 20.50160 0.00000 -20.50160 0.00000 0.00000 0.00000 ; imides
550 549 569 568 3 30.28798 -4.81160 -25.47638 0.00000 0.00000 0.00000 ; imides
550 549 569 570 3 33.20422 0.00000 -33.20422 0.00000 0.00000 0.00000 ; methylguanidinium ion
550 558 559 560 3 33.20422 0.00000 -33.20422 0.00000 0.00000 0.00000 ; methylguanidinium ion
550 558 559 568 3 30.28798 -4.81160 -25.47638 0.00000 0.00000 0.00000 ; imides
551 550 558 559 3 33.20422 0.00000 -33.20422 0.00000 0.00000 0.00000 ; methylguanidinium ion
552 553 3976 3975 3 1.58992 4.76976 0.00000 -6.35968 0.00000 0.00000
552 553 3976 3977 3 1.58992 4.76976 0.00000 -6.35968 0.00000 0.00000
552 553 3976 3978 3 1.58992 4.76976 0.00000 -6.35968 0.00000 0.00000
553 3976 3975 3974 3 1.78866 3.49154 0.53555 -5.81576 0.00000 0.00000
553 3976 3975 3979 3 -1.26775 3.02085 1.74473 -3.49782 0.00000 0.00000
558 550 551 552 3 33.20422 0.00000 -33.20422 0.00000 0.00000 0.00000 ; methylguanidinium ion
558 550 551 556 3 20.50160 0.00000 -20.50160 0.00000 0.00000 0.00000 ; imides
558 559 568 569 3 30.28798 -4.81160 -25.47638 0.00000 0.00000 0.00000 ; imides
559 568 569 549 3 30.28798 -4.81160 -25.47638 0.00000 0.00000 0.00000 ; imides
559 568 569 570 3 33.20422 0.00000 -33.20422 0.00000 0.00000 0.00000 ; methylguanidinium ion
560 559 568 569 3 33.20422 0.00000 -33.20422 0.00000 0.00000 0.00000 ; methylguanidinium ion
568 559 560 561 3 33.20422 0.00000 -33.20422 0.00000 0.00000 0.00000 ; methylguanidinium ion
568 559 560 566 3 20.50160 0.00000 -20.50160 0.00000 0.00000 0.00000 ; imides
569 549 550 551 3 33.20422 0.00000 -33.20422 0.00000 0.00000 0.00000 ; methylguanidinium ion
569 549 550 558 3 30.28798 -4.81160 -25.47638 0.00000 0.00000 0.00000 ; imides
571 572 11092 11091 3 1.58992 4.76976 0.00000 -6.35968 0.00000 0.00000
571 572 11092 11093 3 1.58992 4.76976 0.00000 -6.35968 0.00000 0.00000
571 572 11092 11094 3 1.58992 4.76976 0.00000 -6.35968 0.00000 0.00000
572 11092 11091 11090 3 1.78866 3.49154 0.53555 -5.81576 0.00000 0.00000
572 11092 11091 11095 3 -1.26775 3.02085 1.74473 -3.49782 0.00000 0.00000
577 578 586 587 3 30.28798 -4.81160 -25.47638 0.00000 0.00000 0.00000 ; imides
577 596 597 598 3 33.20422 0.00000 -33.20422 0.00000 0.00000 0.00000 ; methylguanidinium ion
577 596 597 602 3 20.50160 0.00000 -20.50160 0.00000 0.00000 0.00000 ; imides
578 577 596 595 3 30.28798 -4.81160 -25.47638 0.00000 0.00000 0.00000 ; imides
578 577 596 597 3 33.20422 0.00000 -33.20422 0.00000 0.00000 0.00000 ; methylguanidinium ion
578 586 587 588 3 33.20422 0.00000 -33.20422 0.00000 0.00000 0.00000 ; methylguanidinium ion
578 586 587 595 3 30.28798 -4.81160 -25.47638 0.00000 0.00000 0.00000 ; imides
579 578 586 587 3 33.20422 0.00000 -33.20422 0.00000 0.00000 0.00000 ; methylguanidinium ion
580 581 4525 4524 3 1.58992 4.76976 0.00000 -6.35968 0.00000 0.00000
580 581 4525 4526 3 1.58992 4.76976 0.00000 -6.35968 0.00000 0.00000
580 581 4525 4527 3 1.58992 4.76976 0.00000 -6.35968 0.00000 0.00000
581 4525 4524 4523 3 1.78866 3.49154 0.53555 -5.81576 0.00000 0.00000
581 4525 4524 4528 3 -1.26775 3.02085 1.74473 -3.49782 0.00000 0.00000
586 578 579 580 3 33.20422 0.00000 -33.20422 0.00000 0.00000 0.00000 ; methylguanidinium ion
586 578 579 584 3 20.50160 0.00000 -20.50160 0.00000 0.00000 0.00000 ; imides
586 587 595 596 3 30.28798 -4.81160 -25.47638 0.00000 0.00000 0.00000 ; imides
587 595 596 577 3 30.28798 -4.81160 -25.47638 0.00000 0.00000 0.00000 ; imides
587 595 596 597 3 33.20422 0.00000 -33.20422 0.00000 0.00000 0.00000 ; methylguanidinium ion
588 587 595 596 3 33.20422 0.00000 -33.20422 0.00000 0.00000 0.00000 ; methylguanidinium ion
589 590 10970 10969 3 1.58992 4.76976 0.00000 -6.35968 0.00000 0.00000
589 590 10970 10971 3 1.58992 4.76976 0.00000 -6.35968 0.00000 0.00000
589 590 10970 10972 3 1.58992 4.76976 0.00000 -6.35968 0.00000 0.00000
590 10970 10969 10968 3 1.78866 3.49154 0.53555 -5.81576 0.00000 0.00000
590 10970 10969 10973 3 -1.26775 3.02085 1.74473 -3.49782 0.00000 0.00000
595 587 588 589 3 33.20422 0.00000 -33.20422 0.00000 0.00000 0.00000 ; methylguanidinium ion
595 587 588 593 3 20.50160 0.00000 -20.50160 0.00000 0.00000 0.00000 ; imides
596 577 578 579 3 33.20422 0.00000 -33.20422 0.00000 0.00000 0.00000 ; methylguanidinium ion
596 577 578 586 3 30.28798 -4.81160 -25.47638 0.00000 0.00000 0.00000 ; imides
598 599 6520 6519 3 1.58992 4.76976 0.00000 -6.35968 0.00000 0.00000
598 599 6520 6521 3 1.58992 4.76976 0.00000 -6.35968 0.00000 0.00000
598 599 6520 6522 3 1.58992 4.76976 0.00000 -6.35968 0.00000 0.00000
599 6520 6519 6518 3 1.78866 3.49154 0.53555 -5.81576 0.00000 0.00000
599 6520 6519 6523 3 -1.26775 3.02085 1.74473 -3.49782 0.00000 0.00000
604 605 613 614 3 30.28798 -4.81160 -25.47638 0.00000 0.00000 0.00000 ; imides
604 624 625 626 3 33.20422 0.00000 -33.20422 0.00000 0.00000 0.00000 ; methylguanidinium ion
604 624 625 630 3 20.50160 0.00000 -20.50160 0.00000 0.00000 0.00000 ; imides
605 604 624 623 3 30.28798 -4.81160 -25.47638 0.00000 0.00000 0.00000 ; imides
605 604 624 625 3 33.20422 0.00000 -33.20422 0.00000 0.00000 0.00000 ; methylguanidinium ion
605 613 614 615 3 33.20422 0.00000 -33.20422 0.00000 0.00000 0.00000 ; methylguanidinium ion
605 613 614 623 3 30.28798 -4.81160 -25.47638 0.00000 0.00000 0.00000 ; imides
606 605 613 614 3 33.20422 0.00000 -33.20422 0.00000 0.00000 0.00000 ; methylguanidinium ion
607 608 1109 1108 3 1.58992 4.76976 0.00000 -6.35968 0.00000 0.00000
607 608 1109 1110 3 1.58992 4.76976 0.00000 -6.35968 0.00000 0.00000
607 608 1109 1111 3 1.58992 4.76976 0.00000 -6.35968 0.00000 0.00000
608 1109 1108 1107 3 1.78866 3.49154 0.53555 -5.81576 0.00000 0.00000
608 1109 1108 1112 3 -1.26775 3.02085 1.74473 -3.49782 0.00000 0.00000
613 605 606 607 3 33.20422 0.00000 -33.20422 0.00000 0.00000 0.00000 ; methylguanidinium ion
613 605 606 611 3 20.50160 0.00000 -20.50160 0.00000 0.00000 0.00000 ; imides
613 614 623 624 3 30.28798 -4.81160 -25.47638 0.00000 0.00000 0.00000 ; imides
614 623 624 604 3 30.28798 -4.81160 -25.47638 0.00000 0.00000 0.00000 ; imides
614 623 624 625 3 33.20422 0.00000 -33.20422 0.00000 0.00000 0.00000 ; methylguanidinium ion
615 614 623 624 3 33.20422 0.00000 -33.20422 0.00000 0.00000 0.00000 ; methylguanidinium ion
623 614 615 616 3 33.20422 0.00000 -33.20422 0.00000 0.00000 0.00000 ; methylguanidinium ion
623 614 615 621 3 20.50160 0.00000 -20.50160 0.00000 0.00000 0.00000 ; imides
624 604 605 606 3 33.20422 0.00000 -33.20422 0.00000 0.00000 0.00000 ; methylguanidinium ion
624 604 605 613 3 30.28798 -4.81160 -25.47638 0.00000 0.00000 0.00000 ; imides
626 627 1260 1259 3 1.58992 4.76976 0.00000 -6.35968 0.00000 0.00000
626 627 1260 1261 3 1.58992 4.76976 0.00000 -6.35968 0.00000 0.00000
626 627 1260 1262 3 1.58992 4.76976 0.00000 -6.35968 0.00000 0.00000
627 1260 1259 1258 3 1.78866 3.49154 0.53555 -5.81576 0.00000 0.00000
627 1260 1259 1263 3 -1.26775 3.02085 1.74473 -3.49782 0.00000 0.00000
632 633 641 642 3 30.28798 -4.81160 -25.47638 0.00000 0.00000 0.00000 ; imides
632 651 652 653 3 33.20422 0.00000 -33.20422 0.00000 0.00000 0.00000 ; methylguanidinium ion
632 651 652 657 3 20.50160 0.00000 -20.50160 0.00000 0.00000 0.00000 ; imides
633 632 651 650 3 30.28798 -4.81160 -25.47638 0.00000 0.00000 0.00000 ; imides
633 632 651 652 3 33.20422 0.00000 -33.20422 0.00000 0.00000 0.00000 ; methylguanidinium ion
633 641 642 643 3 33.20422 0.00000 -33.20422 0.00000 0.00000 0.00000 ; methylguanidinium ion
633 641 642 650 3 30.28798 -4.81160 -25.47638 0.00000 0.00000 0.00000 ; imides
634 633 641 642 3 33.20422 0.00000 -33.20422 0.00000 0.00000 0.00000 ; methylguanidinium ion
635 636 11425 11424 3 1.58992 4.76976 0.00000 -6.35968 0.00000 0.00000
635 636 11425 11426 3 1.58992 4.76976 0.00000 -6.35968 0.00000 0.00000
635 636 11425 11427 3 1.58992 4.76976 0.00000 -6.35968 0.00000 0.00000
636 11425 11424 11423 3 1.78866 3.49154 0.53555 -5.81576 0.00000 0.00000
636 11425 11424 11428 3 -1.26775 3.02085 1.74473 -3.49782 0.00000 0.00000
641 633 634 635 3 33.20422 0.00000 -33.20422 0.00000 0.00000 0.00000 ; methylguanidinium ion
641 633 634 639 3 20.50160 0.00000 -20.50160 0.00000 0.00000 0.00000 ; imides
641 642 650 651 3 30.28798 -4.81160 -25.47638 0.00000 0.00000 0.00000 ; imides
642 650 651 632 3 30.28798 -4.81160 -25.47638 0.00000 0.00000 0.00000 ; imides
642 650 651 652 3 33.20422 0.00000 -33.20422 0.00000 0.00000 0.00000 ; methylguanidinium ion
643 642 650 651 3 33.20422 0.00000 -33.20422 0.00000 0.00000 0.00000 ; methylguanidinium ion
644 645 5605 5604 3 1.58992 4.76976 0.00000 -6.35968 0.00000 0.00000
644 645 5605 5606 3 1.58992 4.76976 0.00000 -6.35968 0.00000 0.00000
644 645 5605 5607 3 1.58992 4.76976 0.00000 -6.35968 0.00000 0.00000
645 5605 5604 5603 3 1.78866 3.49154 0.53555 -5.81576 0.00000 0.00000
645 5605 5604 5608 3 -1.26775 3.02085 1.74473 -3.49782 0.00000 0.00000
650 642 643 644 3 33.20422 0.00000 -33.20422 0.00000 0.00000 0.00000 ; methylguanidinium ion
650 642 643 648 3 20.50160 0.00000 -20.50160 0.00000 0.00000 0.00000 ; imides
651 632 633 634 3 33.20422 0.00000 -33.20422 0.00000 0.00000 0.00000 ; methylguanidinium ion
651 632 633 641 3 30.28798 -4.81160 -25.47638 0.00000 0.00000 0.00000 ; imides
653 654 2784 2783 3 1.58992 4.76976 0.00000 -6.35968 0.00000 0.00000
653 654 2784 2785 3 1.58992 4.76976 0.00000 -6.35968 0.00000 0.00000
653 654 2784 2786 3 1.58992 4.76976 0.00000 -6.35968 0.00000 0.00000
654 2784 2783 2782 3 1.78866 3.49154 0.53555 -5.81576 0.00000 0.00000
654 2784 2783 2787 3 -1.26775 3.02085 1.74473 -3.49782 0.00000 0.00000
659 660 668 669 3 30.28798 -4.81160 -25.47638 0.00000 0.00000 0.00000 ; imides
659 678 679 680 3 33.20422 0.00000 -33.20422 0.00000 0.00000 0.00000 ; methylguanidinium ion
659 678 679 684 3 20.50160 0.00000 -20.50160 0.00000 0.00000 0.00000 ; imides
660 659 678 677 3 30.28798 -4.81160 -25.47638 0.00000 0.00000 0.00000 ; imides
660 659 678 679 3 33.20422 0.00000 -33.20422 0.00000 0.00000 0.00000 ; methylguanidinium ion
660 668 669 670 3 33.20422 0.00000 -33.20422 0.00000 0.00000 0.00000 ; methylguanidinium ion
660 668 669 677 3 30.28798 -4.81160 -25.47638 0.00000 0.00000 0.00000 ; imides
661 660 668 669 3 33.20422 0.00000 -33.20422 0.00000 0.00000 0.00000 ; methylguanidinium ion
662 663 4912 4911 3 1.58992 4.76976 0.00000 -6.35968 0.00000 0.00000
662 663 4912 4913 3 1.58992 4.76976 0.00000 -6.35968 0.00000 0.00000
662 663 4912 4914 3 1.58992 4.76976 0.00000 -6.35968 0.00000 0.00000
663 4912 4911 4910 3 1.78866 3.49154 0.53555 -5.81576 0.00000 0.00000
663 4912 4911 4915 3 -1.26775 3.02085 1.74473 -3.49782 0.00000 0.00000
668 660 661 662 3 33.20422 0.00000 -33.20422 0.00000 0.00000 0.00000 ; methylguanidinium ion
668 660 661 666 3 20.50160 0.00000 -20.50160 0.00000 0.00000 0.00000 ; imides
668 669 677 678 3 30.28798 -4.81160 -25.47638 0.00000 0.00000 0.00000 ; imides
669 677 678 659 3 30.28798 -4.81160 -25.47638 0.00000 0.00000 0.00000 ; imides
669 677 678 679 3 33.20422 0.00000 -33.20422 0.00000 0.00000 0.00000 ; methylguanidinium ion
670 669 677 678 3 33.20422 0.00000 -33.20422 0.00000 0.00000 0.00000 ; methylguanidinium ion
671 672 1207 1206 3 1.58992 4.76976 0.00000 -6.35968 0.00000 0.00000
671 672 1207 1208 3 1.58992 4.76976 0.00000 -6.35968 0.00000 0.00000
671 672 1207 1209 3 1.58992 4.76976 0.00000 -6.35968 0.00000 0.00000
672 1207 1206 1205 3 1.78866 3.49154 0.53555 -5.81576 0.00000 0.00000
672 1207 1206 1210 3 -1.26775 3.02085 1.74473 -3.49782 0.00000 0.00000
677 669 670 671 3 33.20422 0.00000 -33.20422 0.00000 0.00000 0.00000 ; methylguanidinium ion
677 669 670 675 3 20.50160 0.00000 -20.50160 0.00000 0.00000 0.00000 ; imides
678 659 660 661 3 33.20422 0.00000 -33.20422 0.00000 0.00000 0.00000 ; methylguanidinium ion
678 659 660 668 3 30.28798 -4.81160 -25.47638 0.00000 0.00000 0.00000 ; imides
680 681 8888 8887 3 1.58992 4.76976 0.00000 -6.35968 0.00000 0.00000
680 681 8888 8889 3 1.58992 4.76976 0.00000 -6.35968 0.00000 0.00000
680 681 8888 8890 3 1.58992 4.76976 0.00000 -6.35968 0.00000 0.00000
681 8888 8887 8886 3 1.78866 3.49154 0.53555 -5.81576 0.00000 0.00000
681 8888 8887 8891 3 -1.26775 3.02085 1.74473 -3.49782 0.00000 0.00000
686 687 696 697 3 30.28798 -4.81160 -25.47638 0.00000 0.00000 0.00000 ; imides
686 706 707 708 3 33.20422 0.00000 -33.20422 0.00000 0.00000 0.00000 ; methylguanidinium ion
686 706 707 712 3 20.50160 0.00000 -20.50160 0.00000 0.00000 0.00000 ; imides
687 686 706 705 3 30.28798 -4.81160 -25.47638 0.00000 0.00000 0.00000 ; imides
687 686 706 707 3 33.20422 0.00000 -33.20422 0.00000 0.00000 0.00000 ; methylguanidinium ion
687 696 697 698 3 33.20422 0.00000 -33.20422 0.00000 0.00000 0.00000 ; methylguanidinium ion
687 696 697 705 3 30.28798 -4.81160 -25.47638 0.00000 0.00000 0.00000 ; imides
688 687 696 697 3 33.20422 0.00000 -33.20422 0.00000 0.00000 0.00000 ; methylguanidinium ion
696 687 688 689 3 33.20422 0.00000 -33.20422 0.00000 0.00000 0.00000 ; methylguanidinium ion
696 687 688 694 3 20.50160 0.00000 -20.50160 0.00000 0.00000 0.00000 ; imides
696 697 705 706 3 30.28798 -4.81160 -25.47638 0.00000 0.00000 0.00000 ; imides
697 705 706 686 3 30.28798 -4.81160 -25.47638 0.00000 0.00000 0.00000 ; imides
697 705 706 707 3 33.20422 0.00000 -33.20422 0.00000 0.00000 0.00000 ; methylguanidinium ion
698 697 705 706 3 33.20422 0.00000 -33.20422 0.00000 0.00000 0.00000 ; methylguanidinium ion
699 700 5892 5891 3 1.58992 4.76976 0.00000 -6.35968 0.00000 0.00000
699 700 5892 5893 3 1.58992 4.76976 0.00000 -6.35968 0.00000 0.00000
699 700 5892 5894 3 1.58992 4.76976 0.00000 -6.35968 0.00000 0.00000
700 5892 5891 5890 3 1.78866 3.49154 0.53555 -5.81576 0.00000 0.00000
700 5892 5891 5895 3 -1.26775 3.02085 1.74473 -3.49782 0.00000 0.00000
705 697 698 699 3 33.20422 0.00000 -33.20422 0.00000 0.00000 0.00000 ; methylguanidinium ion
705 697 698 703 3 20.50160 0.00000 -20.50160 0.00000 0.00000 0.00000 ; imides
706 686 687 688 3 33.20422 0.00000 -33.20422 0.00000 0.00000 0.00000 ; methylguanidinium ion
706 686 687 696 3 30.28798 -4.81160 -25.47638 0.00000 0.00000 0.00000 ; imides
708 709 879 878 3 1.58992 4.76976 0.00000 -6.35968 0.00000 0.00000
708 709 879 880 3 1.58992 4.76976 0.00000 -6.35968 0.00000 0.00000
708 709 879 881 3 1.58992 4.76976 0.00000 -6.35968 0.00000 0.00000
709 879 878 877 3 1.78866 3.49154 0.53555 -5.81576 0.00000 0.00000
709 879 878 882 3 -1.26775 3.02085 1.74473 -3.49782 0.00000 0.00000
714 715 723 724 3 30.28798 -4.81160 -25.47638 0.00000 0.00000 0.00000 ; imides
714 732 733 734 3 33.20422 0.00000 -33.20422 0.00000 0.00000 0.00000 ; methylguanidinium ion
714 732 733 738 3 20.50160 0.00000 -20.50160 0.00000 0.00000 0.00000 ; imides
715 714 732 731 3 30.28798 -4.81160 -25.47638 0.00000 0.00000 0.00000 ; imides
715 714 732 733 3 33.20422 0.00000 -33.20422 0.00000 0.00000 0.00000 ; methylguanidinium ion
715 723 724 725 3 33.20422 0.00000 -33.20422 0.00000 0.00000 0.00000 ; methylguanidinium ion
715 723 724 731 3 30.28798 -4.81160 -25.47638 0.00000 0.00000 0.00000 ; imides
716 715 723 724 3 33.20422 0.00000 -33.20422 0.00000 0.00000 0.00000 ; methylguanidinium ion
717 718 9065 9064 3 1.58992 4.76976 0.00000 -6.35968 0.00000 0.00000
717 718 9065 9066 3 1.58992 4.76976 0.00000 -6.35968 0.00000 0.00000
717 718 9065 9067 3 1.58992 4.76976 0.00000 -6.35968 0.00000 0.00000
718 9065 9064 9063 3 1.78866 3.49154 0.53555 -5.81576 0.00000 0.00000
718 9065 9064 9068 3 -1.26775 3.02085 1.74473 -3.49782 0.00000 0.00000
723 715 716 717 3 33.20422 0.00000 -33.20422 0.00000 0.00000 0.00000 ; methylguanidinium ion
723 715 716 721 3 20.50160 0.00000 -20.50160 0.00000 0.00000 0.00000 ; imides
723 724 731 732 3 30.28798 -4.81160 -25.47638 0.00000 0.00000 0.00000 ; imides
724 731 732 714 3 30.28798 -4.81160 -25.47638 0.00000 0.00000 0.00000 ; imides
724 731 732 733 3 33.20422 0.00000 -33.20422 0.00000 0.00000 0.00000 ; methylguanidinium ion
725 724 731 732 3 33.20422 0.00000 -33.20422 0.00000 0.00000 0.00000 ; methylguanidinium ion
726 108 107 106 3 1.58992 4.76976 0.00000 -6.35968 0.00000 0.00000
726 108 107 109 3 1.58992 4.76976 0.00000 -6.35968 0.00000 0.00000
726 108 107 110 3 1.58992 4.76976 0.00000 -6.35968 0.00000 0.00000
731 724 725 726 3 33.20422 0.00000 -33.20422 0.00000 0.00000 0.00000 ; methylguanidinium ion
731 724 725 729 3 20.50160 0.00000 -20.50160 0.00000 0.00000 0.00000 ; imides
732 714 715 716 3 33.20422 0.00000 -33.20422 0.00000 0.00000 0.00000 ; methylguanidinium ion
732 714 715 723 3 30.28798 -4.81160 -25.47638 0.00000 0.00000 0.00000 ; imides
734 735 6815 6814 3 1.58992 4.76976 0.00000 -6.35968 0.00000 0.00000
734 735 6815 6816 3 1.58992 4.76976 0.00000 -6.35968 0.00000 0.00000
734 735 6815 6817 3 1.58992 4.76976 0.00000 -6.35968 0.00000 0.00000
735 6815 6814 6813 3 1.78866 3.49154 0.53555 -5.81576 0.00000 0.00000
735 6815 6814 6818 3 -1.26775 3.02085 1.74473 -3.49782 0.00000 0.00000
740 741 749 750 3 30.28798 -4.81160 -25.47638 0.00000 0.00000 0.00000 ; imides
740 760 761 762 3 33.20422 0.00000 -33.20422 0.00000 0.00000 0.00000 ; methylguanidinium ion
740 760 761 767 3 20.50160 0.00000 -20.50160 0.00000 0.00000 0.00000 ; imides
741 740 760 759 3 30.28798 -4.81160 -25.47638 0.00000 0.00000 0.00000 ; imides
741 740 760 761 3 33.20422 0.00000 -33.20422 0.00000 0.00000 0.00000 ; methylguanidinium ion
741 749 750 751 3 33.20422 0.00000 -33.20422 0.00000 0.00000 0.00000 ; methylguanidinium ion
741 749 750 759 3 30.28798 -4.81160 -25.47638 0.00000 0.00000 0.00000 ; imides
742 741 749 750 3 33.20422 0.00000 -33.20422 0.00000 0.00000 0.00000 ; methylguanidinium ion
743 744 3044 3043 3 1.58992 4.76976 0.00000 -6.35968 0.00000 0.00000
743 744 3044 3045 3 1.58992 4.76976 0.00000 -6.35968 0.00000 0.00000
743 744 3044 3046 3 1.58992 4.76976 0.00000 -6.35968 0.00000 0.00000
744 3044 3043 3042 3 1.78866 3.49154 0.53555 -5.81576 0.00000 0.00000
744 3044 3043 3047 3 -1.26775 3.02085 1.74473 -3.49782 0.00000 0.00000
749 741 742 743 3 33.20422 0.00000 -33.20422 0.00000 0.00000 0.00000 ; methylguanidinium ion
749 741 742 747 3 20.50160 0.00000 -20.50160 0.00000 0.00000 0.00000 ; imides
749 750 759 760 3 30.28798 -4.81160 -25.47638 0.00000 0.00000 0.00000 ; imides
750 759 760 740 3 30.28798 -4.81160 -25.47638 0.00000 0.00000 0.00000 ; imides
750 759 760 761 3 33.20422 0.00000 -33.20422 0.00000 0.00000 0.00000 ; methylguanidinium ion
751 750 759 760 3 33.20422 0.00000 -33.20422 0.00000 0.00000 0.00000 ; methylguanidinium ion
759 750 751 752 3 33.20422 0.00000 -33.20422 0.00000 0.00000 0.00000 ; methylguanidinium ion
759 750 751 757 3 20.50160 0.00000 -20.50160 0.00000 0.00000 0.00000 ; imides
760 740 741 742 3 33.20422 0.00000 -33.20422 0.00000 0.00000 0.00000 ; methylguanidinium ion
760 740 741 749 3 30.28798 -4.81160 -25.47638 0.00000 0.00000 0.00000 ; imides
769 770 778 779 3 30.28798 -4.81160 -25.47638 0.00000 0.00000 0.00000 ; imides
769 788 789 790 3 33.20422 0.00000 -33.20422 0.00000 0.00000 0.00000 ; methylguanidinium ion
769 788 789 794 3 20.50160 0.00000 -20.50160 0.00000 0.00000 0.00000 ; imides
770 769 788 787 3 30.28798 -4.81160 -25.47638 0.00000 0.00000 0.00000 ; imides
770 769 788 789 3 33.20422 0.00000 -33.20422 0.00000 0.00000 0.00000 ; methylguanidinium ion
770 778 779 780 3 33.20422 0.00000 -33.20422 0.00000 0.00000 0.00000 ; methylguanidinium ion
770 778 779 787 3 30.28798 -4.81160 -25.47638 0.00000 0.00000 0.00000 ; imides
771 770 778 779 3 33.20422 0.00000 -33.20422 0.00000 0.00000 0.00000 ; methylguanidinium ion
772 773 10800 10799 3 1.58992 4.76976 0.00000 -6.35968 0.00000 0.00000
772 773 10800 10801 3 1.58992 4.76976 0.00000 -6.35968 0.00000 0.00000
772 773 10800 10802 3 1.58992 4.76976 0.00000 -6.35968 0.00000 0.00000
773 10800 10799 10798 3 1.78866 3.49154 0.53555 -5.81576 0.00000 0.00000
773 10800 10799 10803 3 -1.26775 3.02085 1.74473 -3.49782 0.00000 0.00000
778 770 771 772 3 33.20422 0.00000 -33.20422 0.00000 0.00000 0.00000 ; methylguanidinium ion
778 770 771 776 3 20.50160 0.00000 -20.50160 0.00000 0.00000 0.00000 ; imides
778 779 787 788 3 30.28798 -4.81160 -25.47638 0.00000 0.00000 0.00000 ; imides
779 787 788 769 3 30.28798 -4.81160 -25.47638 0.00000 0.00000 0.00000 ; imides
779 787 788 789 3 33.20422 0.00000 -33.20422 0.00000 0.00000 0.00000 ; methylguanidinium ion
780 779 787 788 3 33.20422 0.00000 -33.20422 0.00000 0.00000 0.00000 ; methylguanidinium ion
781 782 3579 3578 3 1.58992 4.76976 0.00000 -6.35968 0.00000 0.00000
781 782 3579 3580 3 1.58992 4.76976 0.00000 -6.35968 0.00000 0.00000
781 782 3579 3581 3 1.58992 4.76976 0.00000 -6.35968 0.00000 0.00000
782 3579 3578 3577 3 1.78866 3.49154 0.53555 -5.81576 0.00000 0.00000
782 3579 3578 3582 3 -1.26775 3.02085 1.74473 -3.49782 0.00000 0.00000
787 779 780 781 3 33.20422 0.00000 -33.20422 0.00000 0.00000 0.00000 ; methylguanidinium ion
787 779 780 785 3 20.50160 0.00000 -20.50160 0.00000 0.00000 0.00000 ; imides
788 769 770 771 3 33.20422 0.00000 -33.20422 0.00000 0.00000 0.00000 ; methylguanidinium ion
788 769 770 778 3 30.28798 -4.81160 -25.47638 0.00000 0.00000 0.00000 ; imides
790 791 6528 6527 3 1.58992 4.76976 0.00000 -6.35968 0.00000 0.00000
790 791 6528 6529 3 1.58992 4.76976 0.00000 -6.35968 0.00000 0.00000
790 791 6528 6530 3 1.58992 4.76976 0.00000 -6.35968 0.00000 0.00000
791 6528 6527 6526 3 1.78866 3.49154 0.53555 -5.81576 0.00000 0.00000
791 6528 6527 6531 3 -1.26775 3.02085 1.74473 -3.49782 0.00000 0.00000
796 797 804 805 3 30.28798 -4.81160 -25.47638 0.00000 0.00000 0.00000 ; imides
796 814 815 816 3 33.20422 0.00000 -33.20422 0.00000 0.00000 0.00000 ; methylguanidinium ion
796 814 815 820 3 20.50160 0.00000 -20.50160 0.00000 0.00000 0.00000 ; imides
797 796 814 813 3 30.28798 -4.81160 -25.47638 0.00000 0.00000 0.00000 ; imides
797 796 814 815 3 33.20422 0.00000 -33.20422 0.00000 0.00000 0.00000 ; methylguanidinium ion
797 804 805 806 3 33.20422 0.00000 -33.20422 0.00000 0.00000 0.00000 ; methylguanidinium ion
797 804 805 813 3 30.28798 -4.81160 -25.47638 0.00000 0.00000 0.00000 ; imides
798 797 804 805 3 33.20422 0.00000 -33.20422 0.00000 0.00000 0.00000 ; methylguanidinium ion
799 354 353 352 3 1.58992 4.76976 0.00000 -6.35968 0.00000 0.00000
799 354 353 355 3 1.58992 4.76976 0.00000 -6.35968 0.00000 0.00000
799 354 353 356 3 1.58992 4.76976 0.00000 -6.35968 0.00000 0.00000
804 797 798 799 3 33.20422 0.00000 -33.20422 0.00000 0.00000 0.00000 ; methylguanidinium ion
804 797 798 802 3 20.50160 0.00000 -20.50160 0.00000 0.00000 0.00000 ; imides
804 805 813 814 3 30.28798 -4.81160 -25.47638 0.00000 0.00000 0.00000 ; imides
805 813 814 796 3 30.28798 -4.81160 -25.47638 0.00000 0.00000 0.00000 ; imides
805 813 814 815 3 33.20422 0.00000 -33.20422 0.00000 0.00000 0.00000 ; methylguanidinium ion
806 805 813 814 3 33.20422 0.00000 -33.20422 0.00000 0.00000 0.00000 ; methylguanidinium ion
807 808 9638 9637 3 1.58992 4.76976 0.00000 -6.35968 0.00000 0.00000
807 808 9638 9639 3 1.58992 4.76976 0.00000 -6.35968 0.00000 0.00000
807 808 9638 9640 3 1.58992 4.76976 0.00000 -6.35968 0.00000 0.00000
808 9638 9637 9636 3 1.78866 3.49154 0.53555 -5.81576 0.00000 0.00000
808 9638 9637 9641 3 -1.26775 3.02085 1.74473 -3.49782 0.00000 0.00000
813 805 806 807 3 33.20422 0.00000 -33.20422 0.00000 0.00000 0.00000 ; methylguanidinium ion
813 805 806 811 3 20.50160 0.00000 -20.50160 0.00000 0.00000 0.00000 ; imides
814 796 797 798 3 33.20422 0.00000 -33.20422 0.00000 0.00000 0.00000 ; methylguanidinium ion
814 796 797 804 3 30.28798 -4.81160 -25.47638 0.00000 0.00000 0.00000 ; imides
816 817 6789 6788 3 1.58992 4.76976 0.00000 -6.35968 0.00000 0.00000
816 817 6789 6790 3 1.58992 4.76976 0.00000 -6.35968 0.00000 0.00000
816 817 6789 6791 3 1.58992 4.76976 0.00000 -6.35968 0.00000 0.00000
817 6789 6788 6787 3 1.78866 3.49154 0.53555 -5.81576 0.00000 0.00000
817 6789 6788 6792 3 -1.26775 3.02085 1.74473 -3.49782 0.00000 0.00000
822 823 831 832 3 30.28798 -4.81160 -25.47638 0.00000 0.00000 0.00000 ; imides
822 841 842 843 3 33.20422 0.00000 -33.20422 0.00000 0.00000 0.00000 ; methylguanidinium ion
822 841 842 847 3 20.50160 0.00000 -20.50160 0.00000 0.00000 0.00000 ; imides
823 822 841 840 3 30.28798 -4.81160 -25.47638 0.00000 0.00000 0.00000 ; imides
823 822 841 842 3 33.20422 0.00000 -33.20422 0.00000 0.00000 0.00000 ; methylguanidinium ion
823 831 832 833 3 33.20422 0.00000 -33.20422 0.00000 0.00000 0.00000 ; methylguanidinium ion
823 831 832 840 3 30.28798 -4.81160 -25.47638 0.00000 0.00000 0.00000 ; imides
824 823 831 832 3 33.20422 0.00000 -33.20422 0.00000 0.00000 0.00000 ; methylguanidinium ion
825 826 8136 8135 3 1.58992 4.76976 0.00000 -6.35968 0.00000 0.00000
825 826 8136 8137 3 1.58992 4.76976 0.00000 -6.35968 0.00000 0.00000
825 826 8136 8138 3 1.58992 4.76976 0.00000 -6.35968 0.00000 0.00000
826 8136 8135 8134 3 1.78866 3.49154 0.53555 -5.81576 0.00000 0.00000
826 8136 8135 8139 3 -1.26775 3.02085 1.74473 -3.49782 0.00000 0.00000
831 823 824 825 3 33.20422 0.00000 -33.20422 0.00000 0.00000 0.00000 ; methylguanidinium ion
831 823 824 829 3 20.50160 0.00000 -20.50160 0.00000 0.00000 0.00000 ; imides
831 832 840 841 3 30.28798 -4.81160 -25.47638 0.00000 0.00000 0.00000 ; imides
832 840 841 822 3 30.28798 -4.81160 -25.47638 0.00000 0.00000 0.00000 ; imides
832 840 841 842 3 33.20422 0.00000 -33.20422 0.00000 0.00000 0.00000 ; methylguanidinium ion
833 832 840 841 3 33.20422 0.00000 -33.20422 0.00000 0.00000 0.00000 ; methylguanidinium ion
834 835 10243 10242 3 1.58992 4.76976 0.00000 -6.35968 0.00000 0.00000
834 835 10243 10244 3 1.58992 4.76976 0.00000 -6.35968 0.00000 0.00000
834 835 10243 10245 3 1.58992 4.76976 0.00000 -6.35968 0.00000 0.00000
835 10243 10242 10241 3 1.78866 3.49154 0.53555 -5.81576 0.00000 0.00000
835 10243 10242 10246 3 -1.26775 3.02085 1.74473 -3.49782 0.00000 0.00000
840 832 833 834 3 33.20422 0.00000 -33.20422 0.00000 0.00000 0.00000 ; methylguanidinium ion
840 832 833 838 3 20.50160 0.00000 -20.50160 0.00000 0.00000 0.00000 ; imides
841 822 823 824 3 33.20422 0.00000 -33.20422 0.00000 0.00000 0.00000 ; methylguanidinium ion
841 822 823 831 3 30.28798 -4.81160 -25.47638 0.00000 0.00000 0.00000 ; imides
843 844 4709 4708 3 1.58992 4.76976 0.00000 -6.35968 0.00000 0.00000
843 844 4709 4710 3 1.58992 4.76976 0.00000 -6.35968 0.00000 0.00000
843 844 4709 4711 3 1.58992 4.76976 0.00000 -6.35968 0.00000 0.00000
844 4709 4708 4707 3 1.78866 3.49154 0.53555 -5.81576 0.00000 0.00000
844 4709 4708 4712 3 -1.26775 3.02085 1.74473 -3.49782 0.00000 0.00000
849 850 858 859 3 30.28798 -4.81160 -25.47638 0.00000 0.00000 0.00000 ; imides
849 868 869 870 3 33.20422 0.00000 -33.20422 0.00000 0.00000 0.00000 ; methylguanidinium ion
849 868 869 874 3 20.50160 0.00000 -20.50160 0.00000 0.00000 0.00000 ; imides
850 849 868 867 3 30.28798 -4.81160 -25.47638 0.00000 0.00000 0.00000 ; imides
850 849 868 869 3 33.20422 0.00000 -33.20422 0.00000 0.00000 0.00000 ; methylguanidinium ion
850 858 859 860 3 33.20422 0.00000 -33.20422 0.00000 0.00000 0.00000 ; methylguanidinium ion
850 858 859 867 3 30.28798 -4.81160 -25.47638 0.00000 0.00000 0.00000 ; imides
851 850 858 859 3 33.20422 0.00000 -33.20422 0.00000 0.00000 0.00000 ; methylguanidinium ion
852 853 9225 9224 3 1.58992 4.76976 0.00000 -6.35968 0.00000 0.00000
852 853 9225 9226 3 1.58992 4.76976 0.00000 -6.35968 0.00000 0.00000
852 853 9225 9227 3 1.58992 4.76976 0.00000 -6.35968 0.00000 0.00000
853 9225 9224 9223 3 1.78866 3.49154 0.53555 -5.81576 0.00000 0.00000
853 9225 9224 9228 3 -1.26775 3.02085 1.74473 -3.49782 0.00000 0.00000
858 850 851 852 3 33.20422 0.00000 -33.20422 0.00000 0.00000 0.00000 ; methylguanidinium ion
858 850 851 856 3 20.50160 0.00000 -20.50160 0.00000 0.00000 0.00000 ; imides
858 859 867 868 3 30.28798 -4.81160 -25.47638 0.00000 0.00000 0.00000 ; imides
859 867 868 849 3 30.28798 -4.81160 -25.47638 0.00000 0.00000 0.00000 ; imides
859 867 868 869 3 33.20422 0.00000 -33.20422 0.00000 0.00000 0.00000 ; methylguanidinium ion
860 859 867 868 3 33.20422 0.00000 -33.20422 0.00000 0.00000 0.00000 ; methylguanidinium ion
861 862 11727 11726 3 1.58992 4.76976 0.00000 -6.35968 0.00000 0.00000
861 862 11727 11728 3 1.58992 4.76976 0.00000 -6.35968 0.00000 0.00000
861 862 11727 11729 3 1.58992 4.76976 0.00000 -6.35968 0.00000 0.00000
862 11727 11726 11725 3 1.78866 3.49154 0.53555 -5.81576 0.00000 0.00000
862 11727 11726 11730 3 -1.26775 3.02085 1.74473 -3.49782 0.00000 0.00000
867 859 860 861 3 33.20422 0.00000 -33.20422 0.00000 0.00000 0.00000 ; methylguanidinium ion
867 859 860 865 3 20.50160 0.00000 -20.50160 0.00000 0.00000 0.00000 ; imides
868 849 850 851 3 33.20422 0.00000 -33.20422 0.00000 0.00000 0.00000 ; methylguanidinium ion
868 849 850 858 3 30.28798 -4.81160 -25.47638 0.00000 0.00000 0.00000 ; imides
870 871 1424 1423 3 1.58992 4.76976 0.00000 -6.35968 0.00000 0.00000
870 871 1424 1425 3 1.58992 4.76976 0.00000 -6.35968 0.00000 0.00000
870 871 1424 1426 3 1.58992 4.76976 0.00000 -6.35968 0.00000 0.00000
871 1424 1423 1422 3 1.78866 3.49154 0.53555 -5.81576 0.00000 0.00000
871 1424 1423 1427 3 -1.26775 3.02085 1.74473 -3.49782 0.00000 0.00000
876 877 884 885 3 30.28798 -4.81160 -25.47638 0.00000 0.00000 0.00000 ; imides
876 894 895 896 3 33.20422 0.00000 -33.20422 0.00000 0.00000 0.00000 ; methylguanidinium ion
876 894 895 901 3 20.50160 0.00000 -20.50160 0.00000 0.00000 0.00000 ; imides
877 876 894 893 3 30.28798 -4.81160 -25.47638 0.00000 0.00000 0.00000 ; imides
877 876 894 895 3 33.20422 0.00000 -33.20422 0.00000 0.00000 0.00000 ; methylguanidinium ion
877 884 885 886 3 33.20422 0.00000 -33.20422 0.00000 0.00000 0.00000 ; methylguanidinium ion
877 884 885 893 3 30.28798 -4.81160 -25.47638 0.00000 0.00000 0.00000 ; imides
878 877 884 885 3 33.20422 0.00000 -33.20422 0.00000 0.00000 0.00000 ; methylguanidinium ion
879 709 708 707 3 1.58992 4.76976 0.00000 -6.35968 0.00000 0.00000
879 709 708 710 3 1.58992 4.76976 0.00000 -6.35968 0.00000 0.00000
879 709 708 711 3 1.58992 4.76976 0.00000 -6.35968 0.00000 0.00000
884 877 878 879 3 33.20422 0.00000 -33.20422 0.00000 0.00000 0.00000 ; methylguanidinium ion
884 877 878 882 3 20.50160 0.00000 -20.50160 0.00000 0.00000 0.00000 ; imides
884 885 893 894 3 30.28798 -4.81160 -25.47638 0.00000 0.00000 0.00000 ; imides
885 893 894 876 3 30.28798 -4.81160 -25.47638 0.00000 0.00000 0.00000 ; imides
885 893 894 895 3 33.20422 0.00000 -33.20422 0.00000 0.00000 0.00000 ; methylguanidinium ion
886 885 893 894 3 33.20422 0.00000 -33.20422 0.00000 0.00000 0.00000 ; methylguanidinium ion
887 888 9737 9736 3 1.58992 4.76976 0.00000 -6.35968 0.00000 0.00000
887 888 9737 9738 3 1.58992 4.76976 0.00000 -6.35968 0.00000 0.00000
887 888 9737 9739 3 1.58992 4.76976 0.00000 -6.35968 0.00000 0.00000
888 9737 9736 9735 3 1.78866 3.49154 0.53555 -5.81576 0.00000 0.00000
888 9737 9736 9740 3 -1.26775 3.02085 1.74473 -3.49782 0.00000 0.00000
893 885 886 887 3 33.20422 0.00000 -33.20422 0.00000 0.00000 0.00000 ; methylguanidinium ion
893 885 886 891 3 20.50160 0.00000 -20.50160 0.00000 0.00000 0.00000 ; imides
894 876 877 878 3 33.20422 0.00000 -33.20422 0.00000 0.00000 0.00000 ; methylguanidinium ion
894 876 877 884 3 30.28798 -4.81160 -25.47638 0.00000 0.00000 0.00000 ; imides
903 904 912 913 3 30.28798 -4.81160 -25.47638 0.00000 0.00000 0.00000 ; imides
903 922 923 924 3 33.20422 0.00000 -33.20422 0.00000 0.00000 0.00000 ; methylguanidinium ion
903 922 923 928 3 20.50160 0.00000 -20.50160 0.00000 0.00000 0.00000 ; imides
904 903 922 921 3 30.28798 -4.81160 -25.47638 0.00000 0.00000 0.00000 ; imides
904 903 922 923 3 33.20422 0.00000 -33.20422 0.00000 0.00000 0.00000 ; methylguanidinium ion
904 912 913 914 3 33.20422 0.00000 -33.20422 0.00000 0.00000 0.00000 ; methylguanidinium ion
904 912 913 921 3 30.28798 -4.81160 -25.47638 0.00000 0.00000 0.00000 ; imides
905 904 912 913 3 33.20422 0.00000 -33.20422 0.00000 0.00000 0.00000 ; methylguanidinium ion
906 907 9394 9393 3 1.58992 4.76976 0.00000 -6.35968 0.00000 0.00000
906 907 9394 9395 3 1.58992 4.76976 0.00000 -6.35968 0.00000 0.00000
906 907 9394 9396 3 1.58992 4.76976 0.00000 -6.35968 0.00000 0.00000
907 9394 9393 9392 3 1.78866 3.49154 0.53555 -5.81576 0.00000 0.00000
907 9394 9393 9397 3 -1.26775 3.02085 1.74473 -3.49782 0.00000 0.00000
912 904 905 906 3 33.20422 0.00000 -33.20422 0.00000 0.00000 0.00000 ; methylguanidinium ion
912 904 905 910 3 20.50160 0.00000 -20.50160 0.00000 0.00000 0.00000 ; imides
912 913 921 922 3 30.28798 -4.81160 -25.47638 0.00000 0.00000 0.00000 ; imides
913 921 922 903 3 30.28798 -4.81160 -25.47638 0.00000 0.00000 0.00000 ; imides
913 921 922 923 3 33.20422 0.00000 -33.20422 0.00000 0.00000 0.00000 ; methylguanidinium ion
914 913 921 922 3 33.20422 0.00000 -33.20422 0.00000 0.00000 0.00000 ; methylguanidinium ion
915 916 3052 3051 3 1.58992 4.76976 0.00000 -6.35968 0.00000 0.00000
915 916 3052 3053 3 1.58992 4.76976 0.00000 -6.35968 0.00000 0.00000
915 916 3052 3054 3 1.58992 4.76976 0.00000 -6.35968 0.00000 0.00000
916 3052 3051 3050 3 1.78866 3.49154 0.53555 -5.81576 0.00000 0.00000
916 3052 3051 3055 3 -1.26775 3.02085 1.74473 -3.49782 0.00000 0.00000
921 913 914 915 3 33.20422 0.00000 -33.20422 0.00000 0.00000 0.00000 ; methylguanidinium ion
921 913 914 919 3 20.50160 0.00000 -20.50160 0.00000 0.00000 0.00000 ; imides
922 903 904 905 3 33.20422 0.00000 -33.20422 0.00000 0.00000 0.00000 ; methylguanidinium ion
922 903 904 912 3 30.28798 -4.81160 -25.47638 0.00000 0.00000 0.00000 ; imides
924 925 11915 11914 3 1.58992 4.76976 0.00000 -6.35968 0.00000 0.00000
924 925 11915 11916 3 1.58992 4.76976 0.00000 -6.35968 0.00000 0.00000
924 925 11915 11917 3 1.58992 4.76976 0.00000 -6.35968 0.00000 0.00000
925 11915 11914 11913 3 1.78866 3.49154 0.53555 -5.81576 0.00000 0.00000
925 11915 11914 11918 3 -1.26775 3.02085 1.74473 -3.49782 0.00000 0.00000
930 931 939 940 3 30.28798 -4.81160 -25.47638 0.00000 0.00000 0.00000 ; imides
930 949 950 951 3 33.20422 0.00000 -33.20422 0.00000 0.00000 0.00000 ; methylguanidinium ion
930 949 950 955 3 20.50160 0.00000 -20.50160 0.00000 0.00000 0.00000 ; imides
931 930 949 948 3 30.28798 -4.81160 -25.47638 0.00000 0.00000 0.00000 ; imides
931 930 949 950 3 33.20422 0.00000 -33.20422 0.00000 0.00000 0.00000 ; methylguanidinium ion
931 939 940 941 3 33.20422 0.00000 -33.20422 0.00000 0.00000 0.00000 ; methylguanidinium ion
931 939 940 948 3 30.28798 -4.81160 -25.47638 0.00000 0.00000 0.00000 ; imides
932 931 939 940 3 33.20422 0.00000 -33.20422 0.00000 0.00000 0.00000 ; methylguanidinium ion
933 934 5589 5588 3 1.58992 4.76976 0.00000 -6.35968 0.00000 0.00000
933 934 5589 5590 3 1.58992 4.76976 0.00000 -6.35968 0.00000 0.00000
933 934 5589 5591 3 1.58992 4.76976 0.00000 -6.35968 0.00000 0.00000
934 5589 5588 5587 3 1.78866 3.49154 0.53555 -5.81576 0.00000 0.00000
934 5589 5588 5592 3 -1.26775 3.02085 1.74473 -3.49782 0.00000 0.00000
939 931 932 933 3 33.20422 0.00000 -33.20422 0.00000 0.00000 0.00000 ; methylguanidinium ion
939 931 932 937 3 20.50160 0.00000 -20.50160 0.00000 0.00000 0.00000 ; imides
939 940 948 949 3 30.28798 -4.81160 -25.47638 0.00000 0.00000 0.00000 ; imides
940 948 949 930 3 30.28798 -4.81160 -25.47638 0.00000 0.00000 0.00000 ; imides
940 948 949 950 3 33.20422 0.00000 -33.20422 0.00000 0.00000 0.00000 ; methylguanidinium ion
941 940 948 949 3 33.20422 0.00000 -33.20422 0.00000 0.00000 0.00000 ; methylguanidinium ion
942 943 5597 5596 3 1.58992 4.76976 0.00000 -6.35968 0.00000 0.00000
942 943 5597 5598 3 1.58992 4.76976 0.00000 -6.35968 0.00000 0.00000
942 943 5597 5599 3 1.58992 4.76976 0.00000 -6.35968 0.00000 0.00000
943 5597 5596 5595 3 1.78866 3.49154 0.53555 -5.81576 0.00000 0.00000
943 5597 5596 5600 3 -1.26775 3.02085 1.74473 -3.49782 0.00000 0.00000
948 940 941 942 3 33.20422 0.00000 -33.20422 0.00000 0.00000 0.00000 ; methylguanidinium ion
948 940 941 946 3 20.50160 0.00000 -20.50160 0.00000 0.00000 0.00000 ; imides
949 930 931 932 3 33.20422 0.00000 -33.20422 0.00000 0.00000 0.00000 ; methylguanidinium ion
949 930 931 939 3 30.28798 -4.81160 -25.47638 0.00000 0.00000 0.00000 ; imides
951 952 2364 2363 3 1.58992 4.76976 0.00000 -6.35968 0.00000 0.00000
951 952 2364 2365 3 1.58992 4.76976 0.00000 -6.35968 0.00000 0.00000
951 952 2364 2366 3 1.58992 4.76976 0.00000 -6.35968 0.00000 0.00000
952 2364 2363 2362 3 1.78866 3.49154 0.53555 -5.81576 0.00000 0.00000
952 2364 2363 2367 3 -1.26775 3.02085 1.74473 -3.49782 0.00000 0.00000
957 958 966 967 3 30.28798 -4.81160 -25.47638 0.00000 0.00000 0.00000 ; imides
957 977 978 979 3 33.20422 0.00000 -33.20422 0.00000 0.00000 0.00000 ; methylguanidinium ion
957 977 978 984 3 20.50160 0.00000 -20.50160 0.00000 0.00000 0.00000 ; imides
958 957 977 976 3 30.28798 -4.81160 -25.47638 0.00000 0.00000 0.00000 ; imides
958 957 977 978 3 33.20422 0.00000 -33.20422 0.00000 0.00000 0.00000 ; methylguanidinium ion
958 966 967 968 3 33.20422 0.00000 -33.20422 0.00000 0.00000 0.00000 ; methylguanidinium ion
958 966 967 976 3 30.28798 -4.81160 -25.47638 0.00000 0.00000 0.00000 ; imides
959 958 966 967 3 33.20422 0.00000 -33.20422 0.00000 0.00000 0.00000 ; methylguanidinium ion
960 961 11166 11165 3 1.58992 4.76976 0.00000 -6.35968 0.00000 0.00000
960 961 11166 11167 3 1.58992 4.76976 0.00000 -6.35968 0.00000 0.00000
960 961 11166 11168 3 1.58992 4.76976 0.00000 -6.35968 0.00000 0.00000
961 11166 11165 11164 3 1.78866 3.49154 0.53555 -5.81576 0.00000 0.00000
961 11166 11165 11169 3 -1.26775 3.02085 1.74473 -3.49782 0.00000 0.00000
966 958 959 960 3 33.20422 0.00000 -33.20422 0.00000 0.00000 0.00000 ; methylguanidinium ion
966 958 959 964 3 20.50160 0.00000 -20.50160 0.00000 0.00000 0.00000 ; imides
966 967 976 977 3 30.28798 -4.81160 -25.47638 0.00000 0.00000 0.00000 ; imides
967 976 977 957 3 30.28798 -4.81160 -25.47638 0.00000 0.00000 0.00000 ; imides
967 976 977 978 3 33.20422 0.00000 -33.20422 0.00000 0.00000 0.00000 ; methylguanidinium ion
968 967 976 977 3 33.20422 0.00000 -33.20422 0.00000 0.00000 0.00000 ; methylguanidinium ion
976 967 968 969 3 33.20422 0.00000 -33.20422 0.00000 0.00000 0.00000 ; methylguanidinium ion
976 967 968 974 3 20.50160 0.00000 -20.50160 0.00000 0.00000 0.00000 ; imides
977 957 958 959 3 33.20422 0.00000 -33.20422 0.00000 0.00000 0.00000 ; methylguanidinium ion
977 957 958 966 3 30.28798 -4.81160 -25.47638 0.00000 0.00000 0.00000 ; imides
986 987 996 997 3 30.28798 -4.81160 -25.47638 0.00000 0.00000 0.00000 ; imides
986 1006 1007 1008 3 33.20422 0.00000 -33.20422 0.00000 0.00000 0.00000 ; methylguanidinium ion
986 1006 1007 1012 3 20.50160 0.00000 -20.50160 0.00000 0.00000 0.00000 ; imides
987 986 1006 1005 3 30.28798 -4.81160 -25.47638 0.00000 0.00000 0.00000 ; imides
987 986 1006 1007 3 33.20422 0.00000 -33.20422 0.00000 0.00000 0.00000 ; methylguanidinium ion
987 996 997 998 3 33.20422 0.00000 -33.20422 0.00000 0.00000 0.00000 ; methylguanidinium ion
987 996 997 1005 3 30.28798 -4.81160 -25.47638 0.00000 0.00000 0.00000 ; imides
988 987 996 997 3 33.20422 0.00000 -33.20422 0.00000 0.00000 0.00000 ; methylguanidinium ion
996 987 988 989 3 33.20422 0.00000 -33.20422 0.00000 0.00000 0.00000 ; methylguanidinium ion
996 987 988 994 3 20.50160 0.00000 -20.50160 0.00000 0.00000 0.00000 ; imides
996 997 1005 1006 3 30.28798 -4.81160 -25.47638 0.00000 0.00000 0.00000 ; imides
997 1005 1006 986 3 30.28798 -4.81160 -25.47638 0.00000 0.00000 0.00000 ; imides
997 1005 1006 1007 3 33.20422 0.00000 -33.20422 0.00000 0.00000 0.00000 ; methylguanidinium ion
998 997 1005 1006 3 33.20422 0.00000 -33.20422 0.00000 0.00000 0.00000 ; methylguanidinium ion
999 1000 12452 12451 3 1.58992 4.76976 0.00000 -6.35968 0.00000 0.00000
999 1000 12452 12453 3 1.58992 4.76976 0.00000 -6.35968 0.00000 0.00000
999 1000 12452 12454 3 1.58992 4.76976 0.00000 -6.35968 0.00000 0.00000
1000 12452 12451 12450 3 1.78866 3.49154 0.53555 -5.81576 0.00000 0.00000
1000 12452 12451 12455 3 -1.26775 3.02085 1.74473 -3.49782 0.00000 0.00000
1005 997 998 999 3 33.20422 0.00000 -33.20422 0.00000 0.00000 0.00000 ; methylguanidinium ion
1005 997 998 1003 3 20.50160 0.00000 -20.50160 0.00000 0.00000 0.00000 ; imides
1006 986 987 988 3 33.20422 0.00000 -33.20422 0.00000 0.00000 0.00000 ; methylguanidinium ion
1006 986 987 996 3 30.28798 -4.81160 -25.47638 0.00000 0.00000 0.00000 ; imides
1008 1009 12898 12897 3 1.58992 4.76976 0.00000 -6.35968 0.00000 0.00000
1008 1009 12898 12899 3 1.58992 4.76976 0.00000 -6.35968 0.00000 0.00000
1008 1009 12898 12900 3 1.58992 4.76976 0.00000 -6.35968 0.00000 0.00000
1009 12898 12897 12896 3 1.78866 3.49154 0.53555 -5.81576 0.00000 0.00000
1009 12898 12897 12901 3 -1.26775 3.02085 1.74473 -3.49782 0.00000 0.00000
1014 1015 1023 1024 3 30.28798 -4.81160 -25.47638 0.00000 0.00000 0.00000 ; imides
1014 1033 1034 1035 3 33.20422 0.00000 -33.20422 0.00000 0.00000 0.00000 ; methylguanidinium ion
1014 1033 1034 1039 3 20.50160 0.00000 -20.50160 0.00000 0.00000 0.00000 ; imides
1015 1014 1033 1032 3 30.28798 -4.81160 -25.47638 0.00000 0.00000 0.00000 ; imides
1015 1014 1033 1034 3 33.20422 0.00000 -33.20422 0.00000 0.00000 0.00000 ; methylguanidinium ion
1015 1023 1024 1025 3 33.20422 0.00000 -33.20422 0.00000 0.00000 0.00000 ; methylguanidinium ion
1015 1023 1024 1032 3 30.28798 -4.81160 -25.47638 0.00000 0.00000 0.00000 ; imides
1016 1015 1023 1024 3 33.20422 0.00000 -33.20422 0.00000 0.00000 0.00000 ; methylguanidinium ion
1017 1018 5718 5717 3 1.58992 4.76976 0.00000 -6.35968 0.00000 0.00000
1017 1018 5718 5719 3 1.58992 4.76976 0.00000 -6.35968 0.00000 0.00000
1017 1018 5718 5720 3 1.58992 4.76976 0.00000 -6.35968 0.00000 0.00000
1018 5718 5717 5716 3 1.78866 3.49154 0.53555 -5.81576 0.00000 0.00000
1018 5718 5717 5721 3 -1.26775 3.02085 1.74473 -3.49782 0.00000 0.00000
1023 1015 1016 1017 3 33.20422 0.00000 -33.20422 0.00000 0.00000 0.00000 ; methylguanidinium ion
1023 1015 1016 1021 3 20.50160 0.00000 -20.50160 0.00000 0.00000 0.00000 ; imides
1023 1024 1032 1033 3 30.28798 -4.81160 -25.47638 0.00000 0.00000 0.00000 ; imides
1024 1032 1033 1014 3 30.28798 -4.81160 -25.47638 0.00000 0.00000 0.00000 ; imides
1024 1032 1033 1034 3 33.20422 0.00000 -33.20422 0.00000 0.00000 0.00000 ; methylguanidinium ion
1025 1024 1032 1033 3 33.20422 0.00000 -33.20422 0.00000 0.00000 0.00000 ; methylguanidinium ion
1026 1027 11271 11270 3 1.58992 4.76976 0.00000 -6.35968 0.00000 0.00000
1026 1027 11271 11272 3 1.58992 4.76976 0.00000 -6.35968 0.00000 0.00000
1026 1027 11271 11273 3 1.58992 4.76976 0.00000 -6.35968 0.00000 0.00000
1027 11271 11270 11269 3 1.78866 3.49154 0.53555 -5.81576 0.00000 0.00000
1027 11271 11270 11274 3 -1.26775 3.02085 1.74473 -3.49782 0.00000 0.00000
1032 1024 1025 1026 3 33.20422 0.00000 -33.20422 0.00000 0.00000 0.00000 ; methylguanidinium ion
1032 1024 1025 1030 3 20.50160 0.00000 -20.50160 0.00000 0.00000 0.00000 ; imides
1033 1014 1015 1016 3 33.20422 0.00000 -33.20422 0.00000 0.00000 0.00000 ; methylguanidinium ion
1033 1014 1015 1023 3 30.28798 -4.81160 -25.47638 0.00000 0.00000 0.00000 ; imides
1035 1036 9853 9852 3 1.58992 4.76976 0.00000 -6.35968 0.00000 0.00000
1035 1036 9853 9854 3 1.58992 4.76976 0.00000 -6.35968 0.00000 0.00000
1035 1036 9853 9855 3 1.58992 4.76976 0.00000 -6.35968 0.00000 0.00000
1036 9853 9852 9851 3 1.78866 3.49154 0.53555 -5.81576 0.00000 0.00000
1036 9853 9852 9856 3 -1.26775 3.02085 1.74473 -3.49782 0.00000 0.00000
1041 1042 1050 1051 3 30.28798 -4.81160 -25.47638 0.00000 0.00000 0.00000 ; imides
1041 1060 1061 1062 3 33.20422 0.00000 -33.20422 0.00000 0.00000 0.00000 ; methylguanidinium ion
1041 1060 1061 1066 3 20.50160 0.00000 -20.50160 0.00000 0.00000 0.00000 ; imides
1042 1041 1060 1059 3 30.28798 -4.81160 -25.47638 0.00000 0.00000 0.00000 ; imides
1042 1041 1060 1061 3 33.20422 0.00000 -33.20422 0.00000 0.00000 0.00000 ; methylguanidinium ion
1042 1050 1051 1052 3 33.20422 0.00000 -33.20422 0.00000 0.00000 0.00000 ; methylguanidinium ion
1042 1050 1051 1059 3 30.28798 -4.81160 -25.47638 0.00000 0.00000 0.00000 ; imides
1043 1042 1050 1051 3 33.20422 0.00000 -33.20422 0.00000 0.00000 0.00000 ; methylguanidinium ion
1044 1045 4080 4079 3 1.58992 4.76976 0.00000 -6.35968 0.00000 0.00000
1044 1045 4080 4081 3 1.58992 4.76976 0.00000 -6.35968 0.00000 0.00000
1044 1045 4080 4082 3 1.58992 4.76976 0.00000 -6.35968 0.00000 0.00000
1045 4080 4079 4078 3 1.78866 3.49154 0.53555 -5.81576 0.00000 0.00000
1045 4080 4079 4083 3 -1.26775 3.02085 1.74473 -3.49782 0.00000 0.00000
1050 1042 1043 1044 3 33.20422 0.00000 -33.20422 0.00000 0.00000 0.00000 ; methylguanidinium ion
1050 1042 1043 1048 3 20.50160 0.00000 -20.50160 0.00000 0.00000 0.00000 ; imides
1050 1051 1059 1060 3 30.28798 -4.81160 -25.47638 0.00000 0.00000 0.00000 ; imides
1051 1059 1060 1041 3 30.28798 -4.81160 -25.47638 0.00000 0.00000 0.00000 ; imides
1051 1059 1060 1061 3 33.20422 0.00000 -33.20422 0.00000 0.00000 0.00000 ; methylguanidinium ion
1052 1051 1059 1060 3 33.20422 0.00000 -33.20422 0.00000 0.00000 0.00000 ; methylguanidinium ion
1053 1054 5952 5951 3 1.58992 4.76976 0.00000 -6.35968 0.00000 0.00000
1053 1054 5952 5953 3 1.58992 4.76976 0.00000 -6.35968 0.00000 0.00000
1053 1054 5952 5954 3 1.58992 4.76976 0.00000 -6.35968 0.00000 0.00000
1054 5952 5951 5950 3 1.78866 3.49154 0.53555 -5.81576 0.00000 0.00000
1054 5952 5951 5955 3 -1.26775 3.02085 1.74473 -3.49782 0.00000 0.00000
1059 1051 1052 1053 3 33.20422 0.00000 -33.20422 0.00000 0.00000 0.00000 ; methylguanidinium ion
1059 1051 1052 1057 3 20.50160 0.00000 -20.50160 0.00000 0.00000 0.00000 ; imides
1060 1041 1042 1043 3 33.20422 0.00000 -33.20422 0.00000 0.00000 0.00000 ; methylguanidinium ion
1060 1041 1042 1050 3 30.28798 -4.81160 -25.47638 0.00000 0.00000 0.00000 ; imides
1062 1063 10719 10718 3 1.58992 4.76976 0.00000 -6.35968 0.00000 0.00000
1062 1063 10719 10720 3 1.58992 4.76976 0.00000 -6.35968 0.00000 0.00000
1062 1063 10719 10721 3 1.58992 4.76976 0.00000 -6.35968 0.00000 0.00000
1063 10719 10718 10717 3 1.78866 3.49154 0.53555 -5.81576 0.00000 0.00000
1063 10719 10718 10722 3 -1.26775 3.02085 1.74473 -3.49782 0.00000 0.00000
1068 1069 1078 1079 3 30.28798 -4.81160 -25.47638 0.00000 0.00000 0.00000 ; imides
1068 1088 1089 1090 3 33.20422 0.00000 -33.20422 0.00000 0.00000 0.00000 ; methylguanidinium ion
1068 1088 1089 1095 3 20.50160 0.00000 -20.50160 0.00000 0.00000 0.00000 ; imides
1069 1068 1088 1087 3 30.28798 -4.81160 -25.47638 0.00000 0.00000 0.00000 ; imides
1069 1068 1088 1089 3 33.20422 0.00000 -33.20422 0.00000 0.00000 0.00000 ; methylguanidinium ion
1069 1078 1079 1080 3 33.20422 0.00000 -33.20422 0.00000 0.00000 0.00000 ; methylguanidinium ion
1069 1078 1079 1087 3 30.28798 -4.81160 -25.47638 0.00000 0.00000 0.00000 ; imides
1070 1069 1078 1079 3 33.20422 0.00000 -33.20422 0.00000 0.00000 0.00000 ; methylguanidinium ion
1078 1069 1070 1071 3 33.20422 0.00000 -33.20422 0.00000 0.00000 0.00000 ; methylguanidinium ion
1078 1069 1070 1076 3 20.50160 0.00000 -20.50160 0.00000 0.00000 0.00000 ; imides
1078 1079 1087 1088 3 30.28798 -4.81160 -25.47638 0.00000 0.00000 0.00000 ; imides
1079 1087 1088 1068 3 30.28798 -4.81160 -25.47638 0.00000 0.00000 0.00000 ; imides
1079 1087 1088 1089 3 33.20422 0.00000 -33.20422 0.00000 0.00000 0.00000 ; methylguanidinium ion
1080 1079 1087 1088 3 33.20422 0.00000 -33.20422 0.00000 0.00000 0.00000 ; methylguanidinium ion
1081 1082 3149 3148 3 1.58992 4.76976 0.00000 -6.35968 0.00000 0.00000
1081 1082 3149 3150 3 1.58992 4.76976 0.00000 -6.35968 0.00000 0.00000
1081 1082 3149 3151 3 1.58992 4.76976 0.00000 -6.35968 0.00000 0.00000
1082 3149 3148 3147 3 1.78866 3.49154 0.53555 -5.81576 0.00000 0.00000
1082 3149 3148 3152 3 -1.26775 3.02085 1.74473 -3.49782 0.00000 0.00000
1087 1079 1080 1081 3 33.20422 0.00000 -33.20422 0.00000 0.00000 0.00000 ; methylguanidinium ion
1087 1079 1080 1085 3 20.50160 0.00000 -20.50160 0.00000 0.00000 0.00000 ; imides
1088 1068 1069 1070 3 33.20422 0.00000 -33.20422 0.00000 0.00000 0.00000 ; methylguanidinium ion
1088 1068 1069 1078 3 30.28798 -4.81160 -25.47638 0.00000 0.00000 0.00000 ; imides
1097 1098 1106 1107 3 30.28798 -4.81160 -25.47638 0.00000 0.00000 0.00000 ; imides
1097 1115 1116 1117 3 33.20422 0.00000 -33.20422 0.00000 0.00000 0.00000 ; methylguanidinium ion
1097 1115 1116 1121 3 20.50160 0.00000 -20.50160 0.00000 0.00000 0.00000 ; imides
1098 1097 1115 1114 3 30.28798 -4.81160 -25.47638 0.00000 0.00000 0.00000 ; imides
1098 1097 1115 1116 3 33.20422 0.00000 -33.20422 0.00000 0.00000 0.00000 ; methylguanidinium ion
1098 1106 1107 1108 3 33.20422 0.00000 -33.20422 0.00000 0.00000 0.00000 ; methylguanidinium ion
1098 1106 1107 1114 3 30.28798 -4.81160 -25.47638 0.00000 0.00000 0.00000 ; imides
1099 1098 1106 1107 3 33.20422 0.00000 -33.20422 0.00000 0.00000 0.00000 ; methylguanidinium ion
1100 1101 3638 3637 3 1.58992 4.76976 0.00000 -6.35968 0.00000 0.00000
1100 1101 3638 3639 3 1.58992 4.76976 0.00000 -6.35968 0.00000 0.00000
1100 1101 3638 3640 3 1.58992 4.76976 0.00000 -6.35968 0.00000 0.00000
1101 3638 3637 3636 3 1.78866 3.49154 0.53555 -5.81576 0.00000 0.00000
1101 3638 3637 3641 3 -1.26775 3.02085 1.74473 -3.49782 0.00000 0.00000
1106 1098 1099 1100 3 33.20422 0.00000 -33.20422 0.00000 0.00000 0.00000 ; methylguanidinium ion
1106 1098 1099 1104 3 20.50160 0.00000 -20.50160 0.00000 0.00000 0.00000 ; imides
1106 1107 1114 1115 3 30.28798 -4.81160 -25.47638 0.00000 0.00000 0.00000 ; imides
1107 1114 1115 1097 3 30.28798 -4.81160 -25.47638 0.00000 0.00000 0.00000 ; imides
1107 1114 1115 1116 3 33.20422 0.00000 -33.20422 0.00000 0.00000 0.00000 ; methylguanidinium ion
1108 1107 1114 1115 3 33.20422 0.00000 -33.20422 0.00000 0.00000 0.00000 ; methylguanidinium ion
1109 608 607 606 3 1.58992 4.76976 0.00000 -6.35968 0.00000 0.00000
1109 608 607 609 3 1.58992 4.76976 0.00000 -6.35968 0.00000 0.00000
1109 608 607 610 3 1.58992 4.76976 0.00000 -6.35968 0.00000 0.00000
1114 1107 1108 1109 3 33.20422 0.00000 -33.20422 0.00000 0.00000 0.00000 ; methylguanidinium ion
1114 1107 1108 1112 3 20.50160 0.00000 -20.50160 0.00000 0.00000 0.00000 ; imides
1115 1097 1098 1099 3 33.20422 0.00000 -33.20422 0.00000 0.00000 0.00000 ; methylguanidinium ion
1115 1097 1098 1106 3 30.28798 -4.81160 -25.47638 0.00000 0.00000 0.00000 ; imides
1117 1118 5179 5178 3 1.58992 4.76976 0.00000 -6.35968 0.00000 0.00000
1117 1118 5179 5180 3 1.58992 4.76976 0.00000 -6.35968 0.00000 0.00000
1117 1118 5179 5181 3 1.58992 4.76976 0.00000 -6.35968 0.00000 0.00000
1118 5179 5178 5177 3 1.78866 3.49154 0.53555 -5.81576 0.00000 0.00000
1118 5179 5178 5182 3 -1.26775 3.02085 1.74473 -3.49782 0.00000 0.00000
1123 1124 1132 1133 3 30.28798 -4.81160 -25.47638 0.00000 0.00000 0.00000 ; imides
1123 1142 1143 1144 3 33.20422 0.00000 -33.20422 0.00000 0.00000 0.00000 ; methylguanidinium ion
1123 1142 1143 1148 3 20.50160 0.00000 -20.50160 0.00000 0.00000 0.00000 ; imides
1124 1123 1142 1141 3 30.28798 -4.81160 -25.47638 0.00000 0.00000 0.00000 ; imides
1124 1123 1142 1143 3 33.20422 0.00000 -33.20422 0.00000 0.00000 0.00000 ; methylguanidinium ion
1124 1132 1133 1134 3 33.20422 0.00000 -33.20422 0.00000 0.00000 0.00000 ; methylguanidinium ion
1124 1132 1133 1141 3 30.28798 -4.81160 -25.47638 0.00000 0.00000 0.00000 ; imides
1125 1124 1132 1133 3 33.20422 0.00000 -33.20422 0.00000 0.00000 0.00000 ; methylguanidinium ion
1126 1127 7504 7503 3 1.58992 4.76976 0.00000 -6.35968 0.00000 0.00000
1126 1127 7504 7505 3 1.58992 4.76976 0.00000 -6.35968 0.00000 0.00000
1126 1127 7504 7506 3 1.58992 4.76976 0.00000 -6.35968 0.00000 0.00000
1127 7504 7503 7502 3 1.78866 3.49154 0.53555 -5.81576 0.00000 0.00000
1127 7504 7503 7507 3 -1.26775 3.02085 1.74473 -3.49782 0.00000 0.00000
1132 1124 1125 1126 3 33.20422 0.00000 -33.20422 0.00000 0.00000 0.00000 ; methylguanidinium ion
1132 1124 1125 1130 3 20.50160 0.00000 -20.50160 0.00000 0.00000 0.00000 ; imides
1132 1133 1141 1142 3 30.28798 -4.81160 -25.47638 0.00000 0.00000 0.00000 ; imides
1133 1141 1142 1123 3 30.28798 -4.81160 -25.47638 0.00000 0.00000 0.00000 ; imides
1133 1141 1142 1143 3 33.20422 0.00000 -33.20422 0.00000 0.00000 0.00000 ; methylguanidinium ion
1134 1133 1141 1142 3 33.20422 0.00000 -33.20422 0.00000 0.00000 0.00000 ; methylguanidinium ion
1135 1136 8634 8633 3 1.58992 4.76976 0.00000 -6.35968 0.00000 0.00000
1135 1136 8634 8635 3 1.58992 4.76976 0.00000 -6.35968 0.00000 0.00000
1135 1136 8634 8636 3 1.58992 4.76976 0.00000 -6.35968 0.00000 0.00000
1136 8634 8633 8632 3 1.78866 3.49154 0.53555 -5.81576 0.00000 0.00000
1136 8634 8633 8637 3 -1.26775 3.02085 1.74473 -3.49782 0.00000 0.00000
1141 1133 1134 1135 3 33.20422 0.00000 -33.20422 0.00000 0.00000 0.00000 ; methylguanidinium ion
1141 1133 1134 1139 3 20.50160 0.00000 -20.50160 0.00000 0.00000 0.00000 ; imides
1142 1123 1124 1125 3 33.20422 0.00000 -33.20422 0.00000 0.00000 0.00000 ; methylguanidinium ion
1142 1123 1124 1132 3 30.28798 -4.81160 -25.47638 0.00000 0.00000 0.00000 ; imides
1144 1145 9836 9835 3 1.58992 4.76976 0.00000 -6.35968 0.00000 0.00000
1144 1145 9836 9837 3 1.58992 4.76976 0.00000 -6.35968 0.00000 0.00000
1144 1145 9836 9838 3 1.58992 4.76976 0.00000 -6.35968 0.00000 0.00000
1145 9836 9835 9834 3 1.78866 3.49154 0.53555 -5.81576 0.00000 0.00000
1145 9836 9835 9839 3 -1.26775 3.02085 1.74473 -3.49782 0.00000 0.00000
1150 1151 1159 1160 3 30.28798 -4.81160 -25.47638 0.00000 0.00000 0.00000 ; imides
1150 1169 1170 1171 3 33.20422 0.00000 -33.20422 0.00000 0.00000 0.00000 ; methylguanidinium ion
1150 1169 1170 1175 3 20.50160 0.00000 -20.50160 0.00000 0.00000 0.00000 ; imides
1151 1150 1169 1168 3 30.28798 -4.81160 -25.47638 0.00000 0.00000 0.00000 ; imides
1151 1150 1169 1170 3 33.20422 0.00000 -33.20422 0.00000 0.00000 0.00000 ; methylguanidinium ion
1151 1159 1160 1161 3 33.20422 0.00000 -33.20422 0.00000 0.00000 0.00000 ; methylguanidinium ion
1151 1159 1160 1168 3 30.28798 -4.81160 -25.47638 0.00000 0.00000 0.00000 ; imides
1152 1151 1159 1160 3 33.20422 0.00000 -33.20422 0.00000 0.00000 0.00000 ; methylguanidinium ion
1153 1154 3019 3018 3 1.58992 4.76976 0.00000 -6.35968 0.00000 0.00000
1153 1154 3019 3020 3 1.58992 4.76976 0.00000 -6.35968 0.00000 0.00000
1153 1154 3019 3021 3 1.58992 4.76976 0.00000 -6.35968 0.00000 0.00000
1154 3019 3018 3017 3 1.78866 3.49154 0.53555 -5.81576 0.00000 0.00000
1154 3019 3018 3022 3 -1.26775 3.02085 1.74473 -3.49782 0.00000 0.00000
1159 1151 1152 1153 3 33.20422 0.00000 -33.20422 0.00000 0.00000 0.00000 ; methylguanidinium ion
1159 1151 1152 1157 3 20.50160 0.00000 -20.50160 0.00000 0.00000 0.00000 ; imides
1159 1160 1168 1169 3 30.28798 -4.81160 -25.47638 0.00000 0.00000 0.00000 ; imides
1160 1168 1169 1150 3 30.28798 -4.81160 -25.47638 0.00000 0.00000 0.00000 ; imides
1160 1168 1169 1170 3 33.20422 0.00000 -33.20422 0.00000 0.00000 0.00000 ; methylguanidinium ion
1161 1160 1168 1169 3 33.20422 0.00000 -33.20422 0.00000 0.00000 0.00000 ; methylguanidinium ion
1162 1163 8566 8565 3 1.58992 4.76976 0.00000 -6.35968 0.00000 0.00000
1162 1163 8566 8567 3 1.58992 4.76976 0.00000 -6.35968 0.00000 0.00000
1162 1163 8566 8568 3 1.58992 4.76976 0.00000 -6.35968 0.00000 0.00000
1163 8566 8565 8564 3 1.78866 3.49154 0.53555 -5.81576 0.00000 0.00000
1163 8566 8565 8569 3 -1.26775 3.02085 1.74473 -3.49782 0.00000 0.00000
1168 1160 1161 1162 3 33.20422 0.00000 -33.20422 0.00000 0.00000 0.00000 ; methylguanidinium ion
1168 1160 1161 1166 3 20.50160 0.00000 -20.50160 0.00000 0.00000 0.00000 ; imides
1169 1150 1151 1152 3 33.20422 0.00000 -33.20422 0.00000 0.00000 0.00000 ; methylguanidinium ion
1169 1150 1151 1159 3 30.28798 -4.81160 -25.47638 0.00000 0.00000 0.00000 ; imides
1171 1172 7747 7746 3 1.58992 4.76976 0.00000 -6.35968 0.00000 0.00000
1171 1172 7747 7748 3 1.58992 4.76976 0.00000 -6.35968 0.00000 0.00000
1171 1172 7747 7749 3 1.58992 4.76976 0.00000 -6.35968 0.00000 0.00000
1172 7747 7746 7745 3 1.78866 3.49154 0.53555 -5.81576 0.00000 0.00000
1172 7747 7746 7750 3 -1.26775 3.02085 1.74473 -3.49782 0.00000 0.00000
1177 1178 1186 1187 3 30.28798 -4.81160 -25.47638 0.00000 0.00000 0.00000 ; imides
1177 1196 1197 1198 3 33.20422 0.00000 -33.20422 0.00000 0.00000 0.00000 ; methylguanidinium ion
1177 1196 1197 1202 3 20.50160 0.00000 -20.50160 0.00000 0.00000 0.00000 ; imides
1178 1177 1196 1195 3 30.28798 -4.81160 -25.47638 0.00000 0.00000 0.00000 ; imides
1178 1177 1196 1197 3 33.20422 0.00000 -33.20422 0.00000 0.00000 0.00000 ; methylguanidinium ion
1178 1186 1187 1188 3 33.20422 0.00000 -33.20422 0.00000 0.00000 0.00000 ; methylguanidinium ion
1178 1186 1187 1195 3 30.28798 -4.81160 -25.47638 0.00000 0.00000 0.00000 ; imides
1179 1178 1186 1187 3 33.20422 0.00000 -33.20422 0.00000 0.00000 0.00000 ; methylguanidinium ion
1180 1181 1924 1923 3 1.58992 4.76976 0.00000 -6.35968 0.00000 0.00000
1180 1181 1924 1925 3 1.58992 4.76976 0.00000 -6.35968 0.00000 0.00000
1180 1181 1924 1926 3 1.58992 4.76976 0.00000 -6.35968 0.00000 0.00000
1181 1924 1923 1922 3 1.78866 3.49154 0.53555 -5.81576 0.00000 0.00000
1181 1924 1923 1927 3 -1.26775 3.02085 1.74473 -3.49782 0.00000 0.00000
1186 1178 1179 1180 3 33.20422 0.00000 -33.20422 0.00000 0.00000 0.00000 ; methylguanidinium ion
1186 1178 1179 1184 3 20.50160 0.00000 -20.50160 0.00000 0.00000 0.00000 ; imides
1186 1187 1195 1196 3 30.28798 -4.81160 -25.47638 0.00000 0.00000 0.00000 ; imides
1187 1195 1196 1177 3 30.28798 -4.81160 -25.47638 0.00000 0.00000 0.00000 ; imides
1187 1195 1196 1197 3 33.20422 0.00000 -33.20422 0.00000 0.00000 0.00000 ; methylguanidinium ion
1188 1187 1195 1196 3 33.20422 0.00000 -33.20422 0.00000 0.00000 0.00000 ; methylguanidinium ion
1189 1190 5935 5934 3 1.58992 4.76976 0.00000 -6.35968 0.00000 0.00000
1189 1190 5935 5936 3 1.58992 4.76976 0.00000 -6.35968 0.00000 0.00000
1189 1190 5935 5937 3 1.58992 4.76976 0.00000 -6.35968 0.00000 0.00000
1190 5935 5934 5933 3 1.78866 3.49154 0.53555 -5.81576 0.00000 0.00000
1190 5935 5934 5938 3 -1.26775 3.02085 1.74473 -3.49782 0.00000 0.00000
1195 1187 1188 1189 3 33.20422 0.00000 -33.20422 0.00000 0.00000 0.00000 ; methylguanidinium ion
1195 1187 1188 1193 3 20.50160 0.00000 -20.50160 0.00000 0.00000 0.00000 ; imides
1196 1177 1178 1179 3 33.20422 0.00000 -33.20422 0.00000 0.00000 0.00000 ; methylguanidinium ion
1196 1177 1178 1186 3 30.28798 -4.81160 -25.47638 0.00000 0.00000 0.00000 ; imides
1198 1199 12796 12795 3 1.58992 4.76976 0.00000 -6.35968 0.00000 0.00000
1198 1199 12796 12797 3 1.58992 4.76976 0.00000 -6.35968 0.00000 0.00000
1198 1199 12796 12798 3 1.58992 4.76976 0.00000 -6.35968 0.00000 0.00000
1199 12796 12795 12794 3 1.78866 3.49154 0.53555 -5.81576 0.00000 0.00000
1199 12796 12795 12799 3 -1.26775 3.02085 1.74473 -3.49782 0.00000 0.00000
1204 1205 1212 1213 3 30.28798 -4.81160 -25.47638 0.00000 0.00000 0.00000 ; imides
1204 1222 1223 1224 3 33.20422 0.00000 -33.20422 0.00000 0.00000 0.00000 ; methylguanidinium ion
1204 1222 1223 1228 3 20.50160 0.00000 -20.50160 0.00000 0.00000 0.00000 ; imides
1205 1204 1222 1221 3 30.28798 -4.81160 -25.47638 0.00000 0.00000 0.00000 ; imides
1205 1204 1222 1223 3 33.20422 0.00000 -33.20422 0.00000 0.00000 0.00000 ; methylguanidinium ion
1205 1212 1213 1214 3 33.20422 0.00000 -33.20422 0.00000 0.00000 0.00000 ; methylguanidinium ion
1205 1212 1213 1221 3 30.28798 -4.81160 -25.47638 0.00000 0.00000 0.00000 ; imides
1206 1205 1212 1213 3 33.20422 0.00000 -33.20422 0.00000 0.00000 0.00000 ; methylguanidinium ion
1207 672 671 670 3 1.58992 4.76976 0.00000 -6.35968 0.00000 0.00000
1207 672 671 673 3 1.58992 4.76976 0.00000 -6.35968 0.00000 0.00000
1207 672 671 674 3 1.58992 4.76976 0.00000 -6.35968 0.00000 0.00000
1212 1205 1206 1207 3 33.20422 0.00000 -33.20422 0.00000 0.00000 0.00000 ; methylguanidinium ion
1212 1205 1206 1210 3 20.50160 0.00000 -20.50160 0.00000 0.00000 0.00000 ; imides
1212 1213 1221 1222 3 30.28798 -4.81160 -25.47638 0.00000 0.00000 0.00000 ; imides
1213 1221 1222 1204 3 30.28798 -4.81160 -25.47638 0.00000 0.00000 0.00000 ; imides
1213 1221 1222 1223 3 33.20422 0.00000 -33.20422 0.00000 0.00000 0.00000 ; methylguanidinium ion
1214 1213 1221 1222 3 33.20422 0.00000 -33.20422 0.00000 0.00000 0.00000 ; methylguanidinium ion
1215 1216 5233 5232 3 1.58992 4.76976 0.00000 -6.35968 0.00000 0.00000
1215 1216 5233 5234 3 1.58992 4.76976 0.00000 -6.35968 0.00000 0.00000
1215 1216 5233 5235 3 1.58992 4.76976 0.00000 -6.35968 0.00000 0.00000
1216 5233 5232 5231 3 1.78866 3.49154 0.53555 -5.81576 0.00000 0.00000
1216 5233 5232 5236 3 -1.26775 3.02085 1.74473 -3.49782 0.00000 0.00000
1221 1213 1214 1215 3 33.20422 0.00000 -33.20422 0.00000 0.00000 0.00000 ; methylguanidinium ion
1221 1213 1214 1219 3 20.50160 0.00000 -20.50160 0.00000 0.00000 0.00000 ; imides
1222 1204 1205 1206 3 33.20422 0.00000 -33.20422 0.00000 0.00000 0.00000 ; methylguanidinium ion
1222 1204 1205 1212 3 30.28798 -4.81160 -25.47638 0.00000 0.00000 0.00000 ; imides
1224 1225 7057 7056 3 1.58992 4.76976 0.00000 -6.35968 0.00000 0.00000
1224 1225 7057 7058 3 1.58992 4.76976 0.00000 -6.35968 0.00000 0.00000
1224 1225 7057 7059 3 1.58992 4.76976 0.00000 -6.35968 0.00000 0.00000
1225 7057 7056 7055 3 1.78866 3.49154 0.53555 -5.81576 0.00000 0.00000
1225 7057 7056 7060 3 -1.26775 3.02085 1.74473 -3.49782 0.00000 0.00000
1230 1231 1239 1240 3 30.28798 -4.81160 -25.47638 0.00000 0.00000 0.00000 ; imides
1230 1249 1250 1251 3 33.20422 0.00000 -33.20422 0.00000 0.00000 0.00000 ; methylguanidinium ion
1230 1249 1250 1255 3 20.50160 0.00000 -20.50160 0.00000 0.00000 0.00000 ; imides
1231 1230 1249 1248 3 30.28798 -4.81160 -25.47638 0.00000 0.00000 0.00000 ; imides
1231 1230 1249 1250 3 33.20422 0.00000 -33.20422 0.00000 0.00000 0.00000 ; methylguanidinium ion
1231 1239 1240 1241 3 33.20422 0.00000 -33.20422 0.00000 0.00000 0.00000 ; methylguanidinium ion
1231 1239 1240 1248 3 30.28798 -4.81160 -25.47638 0.00000 0.00000 0.00000 ; imides
1232 1231 1239 1240 3 33.20422 0.00000 -33.20422 0.00000 0.00000 0.00000 ; methylguanidinium ion
1233 1234 9184 9183 3 1.58992 4.76976 0.00000 -6.35968 0.00000 0.00000
1233 1234 9184 9185 3 1.58992 4.76976 0.00000 -6.35968 0.00000 0.00000
1233 1234 9184 9186 3 1.58992 4.76976 0.00000 -6.35968 0.00000 0.00000
1234 9184 9183 9182 3 1.78866 3.49154 0.53555 -5.81576 0.00000 0.00000
1234 9184 9183 9187 3 -1.26775 3.02085 1.74473 -3.49782 0.00000 0.00000
1239 1231 1232 1233 3 33.20422 0.00000 -33.20422 0.00000 0.00000 0.00000 ; methylguanidinium ion
1239 1231 1232 1237 3 20.50160 0.00000 -20.50160 0.00000 0.00000 0.00000 ; imides
1239 1240 1248 1249 3 30.28798 -4.81160 -25.47638 0.00000 0.00000 0.00000 ; imides
1240 1248 1249 1230 3 30.28798 -4.81160 -25.47638 0.00000 0.00000 0.00000 ; imides
1240 1248 1249 1250 3 33.20422 0.00000 -33.20422 0.00000 0.00000 0.00000 ; methylguanidinium ion
1241 1240 1248 1249 3 33.20422 0.00000 -33.20422 0.00000 0.00000 0.00000 ; methylguanidinium ion
1242 1243 8674 8673 3 1.58992 4.76976 0.00000 -6.35968 0.00000 0.00000
1242 1243 8674 8675 3 1.58992 4.76976 0.00000 -6.35968 0.00000 0.00000
1242 1243 8674 8676 3 1.58992 4.76976 0.00000 -6.35968 0.00000 0.00000
1243 8674 8673 8672 3 1.78866 3.49154 0.53555 -5.81576 0.00000 0.00000
1243 8674 8673 8677 3 -1.26775 3.02085 1.74473 -3.49782 0.00000 0.00000
1248 1240 1241 1242 3 33.20422 0.00000 -33.20422 0.00000 0.00000 0.00000 ; methylguanidinium ion
1248 1240 1241 1246 3 20.50160 0.00000 -20.50160 0.00000 0.00000 0.00000 ; imides
1249 1230 1231 1232 3 33.20422 0.00000 -33.20422 0.00000 0.00000 0.00000 ; methylguanidinium ion
1249 1230 1231 1239 3 30.28798 -4.81160 -25.47638 0.00000 0.00000 0.00000 ; imides
1251 1252 2533 2532 3 1.58992 4.76976 0.00000 -6.35968 0.00000 0.00000
1251 1252 2533 2534 3 1.58992 4.76976 0.00000 -6.35968 0.00000 0.00000
1251 1252 2533 2535 3 1.58992 4.76976 0.00000 -6.35968 0.00000 0.00000
1252 2533 2532 2531 3 1.78866 3.49154 0.53555 -5.81576 0.00000 0.00000
1252 2533 2532 2536 3 -1.26775 3.02085 1.74473 -3.49782 0.00000 0.00000
1257 1258 1265 1266 3 30.28798 -4.81160 -25.47638 0.00000 0.00000 0.00000 ; imides
1257 1275 1276 1277 3 33.20422 0.00000 -33.20422 0.00000 0.00000 0.00000 ; methylguanidinium ion
1257 1275 1276 1282 3 20.50160 0.00000 -20.50160 0.00000 0.00000 0.00000 ; imides
1258 1257 1275 1274 3 30.28798 -4.81160 -25.47638 0.00000 0.00000 0.00000 ; imides
1258 1257 1275 1276 3 33.20422 0.00000 -33.20422 0.00000 0.00000 0.00000 ; methylguanidinium ion
1258 1265 1266 1267 3 33.20422 0.00000 -33.20422 0.00000 0.00000 0.00000 ; methylguanidinium ion
1258 1265 1266 1274 3 30.28798 -4.81160 -25.47638 0.00000 0.00000 0.00000 ; imides
1259 1258 1265 1266 3 33.20422 0.00000 -33.20422 0.00000 0.00000 0.00000 ; methylguanidinium ion
1260 627 626 625 3 1.58992 4.76976 0.00000 -6.35968 0.00000 0.00000
1260 627 626 628 3 1.58992 4.76976 0.00000 -6.35968 0.00000 0.00000
1260 627 626 629 3 1.58992 4.76976 0.00000 -6.35968 0.00000 0.00000
1265 1258 1259 1260 3 33.20422 0.00000 -33.20422 0.00000 0.00000 0.00000 ; methylguanidinium ion
1265 1258 1259 1263 3 20.50160 0.00000 -20.50160 0.00000 0.00000 0.00000 ; imides
1265 1266 1274 1275 3 30.28798 -4.81160 -25.47638 0.00000 0.00000 0.00000 ; imides
1266 1274 1275 1257 3 30.28798 -4.81160 -25.47638 0.00000 0.00000 0.00000 ; imides
1266 1274 1275 1276 3 33.20422 0.00000 -33.20422 0.00000 0.00000 0.00000 ; methylguanidinium ion
1267 1266 1274 1275 3 33.20422 0.00000 -33.20422 0.00000 0.00000 0.00000 ; methylguanidinium ion
1268 1269 7477 7476 3 1.58992 4.76976 0.00000 -6.35968 0.00000 0.00000
1268 1269 7477 7478 3 1.58992 4.76976 0.00000 -6.35968 0.00000 0.00000
1268 1269 7477 7479 3 1.58992 4.76976 0.00000 -6.35968 0.00000 0.00000
1269 7477 7476 7475 3 1.78866 3.49154 0.53555 -5.81576 0.00000 0.00000
1269 7477 7476 7480 3 -1.26775 3.02085 1.74473 -3.49782 0.00000 0.00000
1274 1266 1267 1268 3 33.20422 0.00000 -33.20422 0.00000 0.00000 0.00000 ; methylguanidinium ion
1274 1266 1267 1272 3 20.50160 0.00000 -20.50160 0.00000 0.00000 0.00000 ; imides
1275 1257 1258 1259 3 33.20422 0.00000 -33.20422 0.00000 0.00000 0.00000 ; methylguanidinium ion
1275 1257 1258 1265 3 30.28798 -4.81160 -25.47638 0.00000 0.00000 0.00000 ; imides
1284 1285 1293 1294 3 30.28798 -4.81160 -25.47638 0.00000 0.00000 0.00000 ; imides
1284 1303 1304 1305 3 33.20422 0.00000 -33.20422 0.00000 0.00000 0.00000 ; methylguanidinium ion
1284 1303 1304 1309 3 20.50160 0.00000 -20.50160 0.00000 0.00000 0.00000 ; imides
1285 1284 1303 1302 3 30.28798 -4.81160 -25.47638 0.00000 0.00000 0.00000 ; imides
1285 1284 1303 1304 3 33.20422 0.00000 -33.20422 0.00000 0.00000 0.00000 ; methylguanidinium ion
1285 1293 1294 1295 3 33.20422 0.00000 -33.20422 0.00000 0.00000 0.00000 ; methylguanidinium ion
1285 1293 1294 1302 3 30.28798 -4.81160 -25.47638 0.00000 0.00000 0.00000 ; imides
1286 1285 1293 1294 3 33.20422 0.00000 -33.20422 0.00000 0.00000 0.00000 ; methylguanidinium ion
1287 1288 3317 3316 3 1.58992 4.76976 0.00000 -6.35968 0.00000 0.00000
1287 1288 3317 3318 3 1.58992 4.76976 0.00000 -6.35968 0.00000 0.00000
1287 1288 3317 3319 3 1.58992 4.76976 0.00000 -6.35968 0.00000 0.00000
1288 3317 3316 3315 3 1.78866 3.49154 0.53555 -5.81576 0.00000 0.00000
1288 3317 3316 3320 3 -1.26775 3.02085 1.74473 -3.49782 0.00000 0.00000
1293 1285 1286 1287 3 33.20422 0.00000 -33.20422 0.00000 0.00000 0.00000 ; methylguanidinium ion
1293 1285 1286 1291 3 20.50160 0.00000 -20.50160 0.00000 0.00000 0.00000 ; imides
1293 1294 1302 1303 3 30.28798 -4.81160 -25.47638 0.00000 0.00000 0.00000 ; imides
1294 1302 1303 1284 3 30.28798 -4.81160 -25.47638 0.00000 0.00000 0.00000 ; imides
1294 1302 1303 1304 3 33.20422 0.00000 -33.20422 0.00000 0.00000 0.00000 ; methylguanidinium ion
1295 1294 1302 1303 3 33.20422 0.00000 -33.20422 0.00000 0.00000 0.00000 ; methylguanidinium ion
1296 1297 1558 1557 3 1.58992 4.76976 0.00000 -6.35968 0.00000 0.00000
1296 1297 1558 1559 3 1.58992 4.76976 0.00000 -6.35968 0.00000 0.00000
1296 1297 1558 1560 3 1.58992 4.76976 0.00000 -6.35968 0.00000 0.00000
1297 1558 1557 1556 3 1.78866 3.49154 0.53555 -5.81576 0.00000 0.00000
1297 1558 1557 1561 3 -1.26775 3.02085 1.74473 -3.49782 0.00000 0.00000
1302 1294 1295 1296 3 33.20422 0.00000 -33.20422 0.00000 0.00000 0.00000 ; methylguanidinium ion
1302 1294 1295 1300 3 20.50160 0.00000 -20.50160 0.00000 0.00000 0.00000 ; imides
1303 1284 1285 1286 3 33.20422 0.00000 -33.20422 0.00000 0.00000 0.00000 ; methylguanidinium ion
1303 1284 1285 1293 3 30.28798 -4.81160 -25.47638 0.00000 0.00000 0.00000 ; imides
1305 1306 6370 6369 3 1.58992 4.76976 0.00000 -6.35968 0.00000 0.00000
1305 1306 6370 6371 3 1.58992 4.76976 0.00000 -6.35968 0.00000 0.00000
1305 1306 6370 6372 3 1.58992 4.76976 0.00000 -6.35968 0.00000 0.00000
1306 6370 6369 6368 3 1.78866 3.49154 0.53555 -5.81576 0.00000 0.00000
1306 6370 6369 6373 3 -1.26775 3.02085 1.74473 -3.49782 0.00000 0.00000
1311 1312 1320 1321 3 30.28798 -4.81160 -25.47638 0.00000 0.00000 0.00000 ; imides
1311 1330 1331 1332 3 33.20422 0.00000 -33.20422 0.00000 0.00000 0.00000 ; methylguanidinium ion
1311 1330 1331 1336 3 20.50160 0.00000 -20.50160 0.00000 0.00000 0.00000 ; imides
1312 1311 1330 1329 3 30.28798 -4.81160 -25.47638 0.00000 0.00000 0.00000 ; imides
1312 1311 1330 1331 3 33.20422 0.00000 -33.20422 0.00000 0.00000 0.00000 ; methylguanidinium ion
1312 1320 1321 1322 3 33.20422 0.00000 -33.20422 0.00000 0.00000 0.00000 ; methylguanidinium ion
1312 1320 1321 1329 3 30.28798 -4.81160 -25.47638 0.00000 0.00000 0.00000 ; imides
1313 1312 1320 1321 3 33.20422 0.00000 -33.20422 0.00000 0.00000 0.00000 ; methylguanidinium ion
1314 1315 11376 11375 3 1.58992 4.76976 0.00000 -6.35968 0.00000 0.00000
1314 1315 11376 11377 3 1.58992 4.76976 0.00000 -6.35968 0.00000 0.00000
1314 1315 11376 11378 3 1.58992 4.76976 0.00000 -6.35968 0.00000 0.00000
1315 11376 11375 11374 3 1.78866 3.49154 0.53555 -5.81576 0.00000 0.00000
1315 11376 11375 11379 3 -1.26775 3.02085 1.74473 -3.49782 0.00000 0.00000
1320 1312 1313 1314 3 33.20422 0.00000 -33.20422 0.00000 0.00000 0.00000 ; methylguanidinium ion
1320 1312 1313 1318 3 20.50160 0.00000 -20.50160 0.00000 0.00000 0.00000 ; imides
1320 1321 1329 1330 3 30.28798 -4.81160 -25.47638 0.00000 0.00000 0.00000 ; imides
1321 1329 1330 1311 3 30.28798 -4.81160 -25.47638 0.00000 0.00000 0.00000 ; imides
1321 1329 1330 1331 3 33.20422 0.00000 -33.20422 0.00000 0.00000 0.00000 ; methylguanidinium ion
1322 1321 1329 1330 3 33.20422 0.00000 -33.20422 0.00000 0.00000 0.00000 ; methylguanidinium ion
1323 1324 9606 9605 3 1.58992 4.76976 0.00000 -6.35968 0.00000 0.00000
1323 1324 9606 9607 3 1.58992 4.76976 0.00000 -6.35968 0.00000 0.00000
1323 1324 9606 9608 3 1.58992 4.76976 0.00000 -6.35968 0.00000 0.00000
1324 9606 9605 9604 3 1.78866 3.49154 0.53555 -5.81576 0.00000 0.00000
1324 9606 9605 9609 3 -1.26775 3.02085 1.74473 -3.49782 0.00000 0.00000
1329 1321 1322 1323 3 33.20422 0.00000 -33.20422 0.00000 0.00000 0.00000 ; methylguanidinium ion
1329 1321 1322 1327 3 20.50160 0.00000 -20.50160 0.00000 0.00000 0.00000 ; imides
1330 1311 1312 1313 3 33.20422 0.00000 -33.20422 0.00000 0.00000 0.00000 ; methylguanidinium ion
1330 1311 1312 1320 3 30.28798 -4.81160 -25.47638 0.00000 0.00000 0.00000 ; imides
1332 1333 5710 5709 3 1.58992 4.76976 0.00000 -6.35968 0.00000 0.00000
1332 1333 5710 5711 3 1.58992 4.76976 0.00000 -6.35968 0.00000 0.00000
1332 1333 5710 5712 3 1.58992 4.76976 0.00000 -6.35968 0.00000 0.00000
1333 5710 5709 5708 3 1.78866 3.49154 0.53555 -5.81576 0.00000 0.00000
1333 5710 5709 5713 3 -1.26775 3.02085 1.74473 -3.49782 0.00000 0.00000
1338 1339 1347 1348 3 30.28798 -4.81160 -25.47638 0.00000 0.00000 0.00000 ; imides
1338 1357 1358 1359 3 33.20422 0.00000 -33.20422 0.00000 0.00000 0.00000 ; methylguanidinium ion
1338 1357 1358 1364 3 20.50160 0.00000 -20.50160 0.00000 0.00000 0.00000 ; imides
1339 1338 1357 1356 3 30.28798 -4.81160 -25.47638 0.00000 0.00000 0.00000 ; imides
1339 1338 1357 1358 3 33.20422 0.00000 -33.20422 0.00000 0.00000 0.00000 ; methylguanidinium ion
1339 1347 1348 1349 3 33.20422 0.00000 -33.20422 0.00000 0.00000 0.00000 ; methylguanidinium ion
1339 1347 1348 1356 3 30.28798 -4.81160 -25.47638 0.00000 0.00000 0.00000 ; imides
1340 1339 1347 1348 3 33.20422 0.00000 -33.20422 0.00000 0.00000 0.00000 ; methylguanidinium ion
1341 1342 9954 9953 3 1.58992 4.76976 0.00000 -6.35968 0.00000 0.00000
1341 1342 9954 9955 3 1.58992 4.76976 0.00000 -6.35968 0.00000 0.00000
1341 1342 9954 9956 3 1.58992 4.76976 0.00000 -6.35968 0.00000 0.00000
1342 9954 9953 9952 3 1.78866 3.49154 0.53555 -5.81576 0.00000 0.00000
1342 9954 9953 9957 3 -1.26775 3.02085 1.74473 -3.49782 0.00000 0.00000
1347 1339 1340 1341 3 33.20422 0.00000 -33.20422 0.00000 0.00000 0.00000 ; methylguanidinium ion
1347 1339 1340 1345 3 20.50160 0.00000 -20.50160 0.00000 0.00000 0.00000 ; imides
1347 1348 1356 1357 3 30.28798 -4.81160 -25.47638 0.00000 0.00000 0.00000 ; imides
1348 1356 1357 1338 3 30.28798 -4.81160 -25.47638 0.00000 0.00000 0.00000 ; imides
1348 1356 1357 1358 3 33.20422 0.00000 -33.20422 0.00000 0.00000 0.00000 ; methylguanidinium ion
1349 1348 1356 1357 3 33.20422 0.00000 -33.20422 0.00000 0.00000 0.00000 ; methylguanidinium ion
1350 1351 3798 3797 3 1.58992 4.76976 0.00000 -6.35968 0.00000 0.00000
1350 1351 3798 3799 3 1.58992 4.76976 0.00000 -6.35968 0.00000 0.00000
1350 1351 3798 3800 3 1.58992 4.76976 0.00000 -6.35968 0.00000 0.00000
1351 3798 3797 3796 3 1.78866 3.49154 0.53555 -5.81576 0.00000 0.00000
1351 3798 3797 3801 3 -1.26775 3.02085 1.74473 -3.49782 0.00000 0.00000
1356 1348 1349 1350 3 33.20422 0.00000 -33.20422 0.00000 0.00000 0.00000 ; methylguanidinium ion
1356 1348 1349 1354 3 20.50160 0.00000 -20.50160 0.00000 0.00000 0.00000 ; imides
1357 1338 1339 1340 3 33.20422 0.00000 -33.20422 0.00000 0.00000 0.00000 ; methylguanidinium ion
1357 1338 1339 1347 3 30.28798 -4.81160 -25.47638 0.00000 0.00000 0.00000 ; imides
1366 1367 1375 1376 3 30.28798 -4.81160 -25.47638 0.00000 0.00000 0.00000 ; imides
1366 1385 1386 1387 3 33.20422 0.00000 -33.20422 0.00000 0.00000 0.00000 ; methylguanidinium ion
1366 1385 1386 1391 3 20.50160 0.00000 -20.50160 0.00000 0.00000 0.00000 ; imides
1367 1366 1385 1384 3 30.28798 -4.81160 -25.47638 0.00000 0.00000 0.00000 ; imides
1367 1366 1385 1386 3 33.20422 0.00000 -33.20422 0.00000 0.00000 0.00000 ; methylguanidinium ion
1367 1375 1376 1377 3 33.20422 0.00000 -33.20422 0.00000 0.00000 0.00000 ; methylguanidinium ion
1367 1375 1376 1384 3 30.28798 -4.81160 -25.47638 0.00000 0.00000 0.00000 ; imides
1368 1367 1375 1376 3 33.20422 0.00000 -33.20422 0.00000 0.00000 0.00000 ; methylguanidinium ion
1369 1370 2471 2470 3 1.58992 4.76976 0.00000 -6.35968 0.00000 0.00000
1369 1370 2471 2472 3 1.58992 4.76976 0.00000 -6.35968 0.00000 0.00000
1369 1370 2471 2473 3 1.58992 4.76976 0.00000 -6.35968 0.00000 0.00000
1370 2471 2470 2469 3 1.78866 3.49154 0.53555 -5.81576 0.00000 0.00000
1370 2471 2470 2474 3 -1.26775 3.02085 1.74473 -3.49782 0.00000 0.00000
1375 1367 1368 1369 3 33.20422 0.00000 -33.20422 0.00000 0.00000 0.00000 ; methylguanidinium ion
1375 1367 1368 1373 3 20.50160 0.00000 -20.50160 0.00000 0.00000 0.00000 ; imides
1375 1376 1384 1385 3 30.28798 -4.81160 -25.47638 0.00000 0.00000 0.00000 ; imides
1376 1384 1385 1366 3 30.28798 -4.81160 -25.47638 0.00000 0.00000 0.00000 ; imides
1376 1384 1385 1386 3 33.20422 0.00000 -33.20422 0.00000 0.00000 0.00000 ; methylguanidinium ion
1377 1376 1384 1385 3 33.20422 0.00000 -33.20422 0.00000 0.00000 0.00000 ; methylguanidinium ion
1378 1379 2879 2878 3 1.58992 4.76976 0.00000 -6.35968 0.00000 0.00000
1378 1379 2879 2880 3 1.58992 4.76976 0.00000 -6.35968 0.00000 0.00000
1378 1379 2879 2881 3 1.58992 4.76976 0.00000 -6.35968 0.00000 0.00000
1379 2879 2878 2877 3 1.78866 3.49154 0.53555 -5.81576 0.00000 0.00000
1379 2879 2878 2882 3 -1.26775 3.02085 1.74473 -3.49782 0.00000 0.00000
1384 1376 1377 1378 3 33.20422 0.00000 -33.20422 0.00000 0.00000 0.00000 ; methylguanidinium ion
1384 1376 1377 1382 3 20.50160 0.00000 -20.50160 0.00000 0.00000 0.00000 ; imides
1385 1366 1367 1368 3 33.20422 0.00000 -33.20422 0.00000 0.00000 0.00000 ; methylguanidinium ion
1385 1366 1367 1375 3 30.28798 -4.81160 -25.47638 0.00000 0.00000 0.00000 ; imides
1387 1388 4279 4278 3 1.58992 4.76976 0.00000 -6.35968 0.00000 0.00000
1387 1388 4279 4280 3 1.58992 4.76976 0.00000 -6.35968 0.00000 0.00000
1387 1388 4279 4281 3 1.58992 4.76976 0.00000 -6.35968 0.00000 0.00000
1388 4279 4278 4277 3 1.78866 3.49154 0.53555 -5.81576 0.00000 0.00000
1388 4279 4278 4282 3 -1.26775 3.02085 1.74473 -3.49782 0.00000 0.00000
1393 1394 1402 1403 3 30.28798 -4.81160 -25.47638 0.00000 0.00000 0.00000 ; imides
1393 1413 1414 1415 3 33.20422 0.00000 -33.20422 0.00000 0.00000 0.00000 ; methylguanidinium ion
1393 1413 1414 1419 3 20.50160 0.00000 -20.50160 0.00000 0.00000 0.00000 ; imides
1394 1393 1413 1412 3 30.28798 -4.81160 -25.47638 0.00000 0.00000 0.00000 ; imides
1394 1393 1413 1414 3 33.20422 0.00000 -33.20422 0.00000 0.00000 0.00000 ; methylguanidinium ion
1394 1402 1403 1404 3 33.20422 0.00000 -33.20422 0.00000 0.00000 0.00000 ; methylguanidinium ion
1394 1402 1403 1412 3 30.28798 -4.81160 -25.47638 0.00000 0.00000 0.00000 ; imides
1395 1394 1402 1403 3 33.20422 0.00000 -33.20422 0.00000 0.00000 0.00000 ; methylguanidinium ion
1396 1397 12804 12803 3 1.58992 4.76976 0.00000 -6.35968 0.00000 0.00000
1396 1397 12804 12805 3 1.58992 4.76976 0.00000 -6.35968 0.00000 0.00000
1396 1397 12804 12806 3 1.58992 4.76976 0.00000 -6.35968 0.00000 0.00000
1397 12804 12803 12802 3 1.78866 3.49154 0.53555 -5.81576 0.00000 0.00000
1397 12804 12803 12807 3 -1.26775 3.02085 1.74473 -3.49782 0.00000 0.00000
1402 1394 1395 1396 3 33.20422 0.00000 -33.20422 0.00000 0.00000 0.00000 ; methylguanidinium ion
1402 1394 1395 1400 3 20.50160 0.00000 -20.50160 0.00000 0.00000 0.00000 ; imides
1402 1403 1412 1413 3 30.28798 -4.81160 -25.47638 0.00000 0.00000 0.00000 ; imides
1403 1412 1413 1393 3 30.28798 -4.81160 -25.47638 0.00000 0.00000 0.00000 ; imides
1403 1412 1413 1414 3 33.20422 0.00000 -33.20422 0.00000 0.00000 0.00000 ; methylguanidinium ion
1404 1403 1412 1413 3 33.20422 0.00000 -33.20422 0.00000 0.00000 0.00000 ; methylguanidinium ion
1412 1403 1404 1405 3 33.20422 0.00000 -33.20422 0.00000 0.00000 0.00000 ; methylguanidinium ion
1412 1403 1404 1410 3 20.50160 0.00000 -20.50160 0.00000 0.00000 0.00000 ; imides
1413 1393 1394 1395 3 33.20422 0.00000 -33.20422 0.00000 0.00000 0.00000 ; methylguanidinium ion
1413 1393 1394 1402 3 30.28798 -4.81160 -25.47638 0.00000 0.00000 0.00000 ; imides
1415 1416 2828 2827 3 1.58992 4.76976 0.00000 -6.35968 0.00000 0.00000
1415 1416 2828 2829 3 1.58992 4.76976 0.00000 -6.35968 0.00000 0.00000
1415 1416 2828 2830 3 1.58992 4.76976 0.00000 -6.35968 0.00000 0.00000
1416 2828 2827 2826 3 1.78866 3.49154 0.53555 -5.81576 0.00000 0.00000
1416 2828 2827 2831 3 -1.26775 3.02085 1.74473 -3.49782 0.00000 0.00000
1421 1422 1429 1430 3 30.28798 -4.81160 -25.47638 0.00000 0.00000 0.00000 ; imides
1421 1439 1440 1441 3 33.20422 0.00000 -33.20422 0.00000 0.00000 0.00000 ; methylguanidinium ion
1421 1439 1440 1445 3 20.50160 0.00000 -20.50160 0.00000 0.00000 0.00000 ; imides
1422 1421 1439 1438 3 30.28798 -4.81160 -25.47638 0.00000 0.00000 0.00000 ; imides
1422 1421 1439 1440 3 33.20422 0.00000 -33.20422 0.00000 0.00000 0.00000 ; methylguanidinium ion
1422 1429 1430 1431 3 33.20422 0.00000 -33.20422 0.00000 0.00000 0.00000 ; methylguanidinium ion
1422 1429 1430 1438 3 30.28798 -4.81160 -25.47638 0.00000 0.00000 0.00000 ; imides
1423 1422 1429 1430 3 33.20422 0.00000 -33.20422 0.00000 0.00000 0.00000 ; methylguanidinium ion
1424 871 870 869 3 1.58992 4.76976 0.00000 -6.35968 0.00000 0.00000
1424 871 870 872 3 1.58992 4.76976 0.00000 -6.35968 0.00000 0.00000
1424 871 870 873 3 1.58992 4.76976 0.00000 -6.35968 0.00000 0.00000
1429 1422 1423 1424 3 33.20422 0.00000 -33.20422 0.00000 0.00000 0.00000 ; methylguanidinium ion
1429 1422 1423 1427 3 20.50160 0.00000 -20.50160 0.00000 0.00000 0.00000 ; imides
1429 1430 1438 1439 3 30.28798 -4.81160 -25.47638 0.00000 0.00000 0.00000 ; imides
1430 1438 1439 1421 3 30.28798 -4.81160 -25.47638 0.00000 0.00000 0.00000 ; imides
1430 1438 1439 1440 3 33.20422 0.00000 -33.20422 0.00000 0.00000 0.00000 ; methylguanidinium ion
1431 1430 1438 1439 3 33.20422 0.00000 -33.20422 0.00000 0.00000 0.00000 ; methylguanidinium ion
1432 1433 8354 8353 3 1.58992 4.76976 0.00000 -6.35968 0.00000 0.00000
1432 1433 8354 8355 3 1.58992 4.76976 0.00000 -6.35968 0.00000 0.00000
1432 1433 8354 8356 3 1.58992 4.76976 0.00000 -6.35968 0.00000 0.00000
1433 8354 8353 8352 3 1.78866 3.49154 0.53555 -5.81576 0.00000 0.00000
1433 8354 8353 8357 3 -1.26775 3.02085 1.74473 -3.49782 0.00000 0.00000
1438 1430 1431 1432 3 33.20422 0.00000 -33.20422 0.00000 0.00000 0.00000 ; methylguanidinium ion
1438 1430 1431 1436 3 20.50160 0.00000 -20.50160 0.00000 0.00000 0.00000 ; imides
1439 1421 1422 1423 3 33.20422 0.00000 -33.20422 0.00000 0.00000 0.00000 ; methylguanidinium ion
1439 1421 1422 1429 3 30.28798 -4.81160 -25.47638 0.00000 0.00000 0.00000 ; imides
1441 1442 4168 4167 3 1.58992 4.76976 0.00000 -6.35968 0.00000 0.00000
1441 1442 4168 4169 3 1.58992 4.76976 0.00000 -6.35968 0.00000 0.00000
1441 1442 4168 4170 3 1.58992 4.76976 0.00000 -6.35968 0.00000 0.00000
1442 4168 4167 4166 3 1.78866 3.49154 0.53555 -5.81576 0.00000 0.00000
1442 4168 4167 4171 3 -1.26775 3.02085 1.74473 -3.49782 0.00000 0.00000
1447 1448 1456 1457 3 30.28798 -4.81160 -25.47638 0.00000 0.00000 0.00000 ; imides
1447 1466 1467 1468 3 33.20422 0.00000 -33.20422 0.00000 0.00000 0.00000 ; methylguanidinium ion
1447 1466 1467 1472 3 20.50160 0.00000 -20.50160 0.00000 0.00000 0.00000 ; imides
1448 1447 1466 1465 3 30.28798 -4.81160 -25.47638 0.00000 0.00000 0.00000 ; imides
1448 1447 1466 1467 3 33.20422 0.00000 -33.20422 0.00000 0.00000 0.00000 ; methylguanidinium ion
1448 1456 1457 1458 3 33.20422 0.00000 -33.20422 0.00000 0.00000 0.00000 ; methylguanidinium ion
1448 1456 1457 1465 3 30.28798 -4.81160 -25.47638 0.00000 0.00000 0.00000 ; imides
1449 1448 1456 1457 3 33.20422 0.00000 -33.20422 0.00000 0.00000 0.00000 ; methylguanidinium ion
1450 1451 8050 8049 3 1.58992 4.76976 0.00000 -6.35968 0.00000 0.00000
1450 1451 8050 8051 3 1.58992 4.76976 0.00000 -6.35968 0.00000 0.00000
1450 1451 8050 8052 3 1.58992 4.76976 0.00000 -6.35968 0.00000 0.00000
1451 8050 8049 8048 3 1.78866 3.49154 0.53555 -5.81576 0.00000 0.00000
1451 8050 8049 8053 3 -1.26775 3.02085 1.74473 -3.49782 0.00000 0.00000
1456 1448 1449 1450 3 33.20422 0.00000 -33.20422 0.00000 0.00000 0.00000 ; methylguanidinium ion
1456 1448 1449 1454 3 20.50160 0.00000 -20.50160 0.00000 0.00000 0.00000 ; imides
1456 1457 1465 1466 3 30.28798 -4.81160 -25.47638 0.00000 0.00000 0.00000 ; imides
1457 1465 1466 1447 3 30.28798 -4.81160 -25.47638 0.00000 0.00000 0.00000 ; imides
1457 1465 1466 1467 3 33.20422 0.00000 -33.20422 0.00000 0.00000 0.00000 ; methylguanidinium ion
1458 1457 1465 1466 3 33.20422 0.00000 -33.20422 0.00000 0.00000 0.00000 ; methylguanidinium ion
1459 1460 5407 5406 3 1.58992 4.76976 0.00000 -6.35968 0.00000 0.00000
1459 1460 5407 5408 3 1.58992 4.76976 0.00000 -6.35968 0.00000 0.00000
1459 1460 5407 5409 3 1.58992 4.76976 0.00000 -6.35968 0.00000 0.00000
1460 5407 5406 5405 3 1.78866 3.49154 0.53555 -5.81576 0.00000 0.00000
1460 5407 5406 5410 3 -1.26775 3.02085 1.74473 -3.49782 0.00000 0.00000
1465 1457 1458 1459 3 33.20422 0.00000 -33.20422 0.00000 0.00000 0.00000 ; methylguanidinium ion
1465 1457 1458 1463 3 20.50160 0.00000 -20.50160 0.00000 0.00000 0.00000 ; imides
1466 1447 1448 1449 3 33.20422 0.00000 -33.20422 0.00000 0.00000 0.00000 ; methylguanidinium ion
1466 1447 1448 1456 3 30.28798 -4.81160 -25.47638 0.00000 0.00000 0.00000 ; imides
1468 1469 3832 3831 3 1.58992 4.76976 0.00000 -6.35968 0.00000 0.00000
1468 1469 3832 3833 3 1.58992 4.76976 0.00000 -6.35968 0.00000 0.00000
1468 1469 3832 3834 3 1.58992 4.76976 0.00000 -6.35968 0.00000 0.00000
1469 3832 3831 3830 3 1.78866 3.49154 0.53555 -5.81576 0.00000 0.00000
1469 3832 3831 3835 3 -1.26775 3.02085 1.74473 -3.49782 0.00000 0.00000
1474 1475 1483 1484 3 30.28798 -4.81160 -25.47638 0.00000 0.00000 0.00000 ; imides
1474 1493 1494 1495 3 33.20422 0.00000 -33.20422 0.00000 0.00000 0.00000 ; methylguanidinium ion
1474 1493 1494 1499 3 20.50160 0.00000 -20.50160 0.00000 0.00000 0.00000 ; imides
1475 1474 1493 1492 3 30.28798 -4.81160 -25.47638 0.00000 0.00000 0.00000 ; imides
1475 1474 1493 1494 3 33.20422 0.00000 -33.20422 0.00000 0.00000 0.00000 ; methylguanidinium ion
1475 1483 1484 1485 3 33.20422 0.00000 -33.20422 0.00000 0.00000 0.00000 ; methylguanidinium ion
1475 1483 1484 1492 3 30.28798 -4.81160 -25.47638 0.00000 0.00000 0.00000 ; imides
1476 1475 1483 1484 3 33.20422 0.00000 -33.20422 0.00000 0.00000 0.00000 ; methylguanidinium ion
1477 1478 10927 10926 3 1.58992 4.76976 0.00000 -6.35968 0.00000 0.00000
1477 1478 10927 10928 3 1.58992 4.76976 0.00000 -6.35968 0.00000 0.00000
1477 1478 10927 10929 3 1.58992 4.76976 0.00000 -6.35968 0.00000 0.00000
1478 10927 10926 10925 3 1.78866 3.49154 0.53555 -5.81576 0.00000 0.00000
1478 10927 10926 10930 3 -1.26775 3.02085 1.74473 -3.49782 0.00000 0.00000
1483 1475 1476 1477 3 33.20422 0.00000 -33.20422 0.00000 0.00000 0.00000 ; methylguanidinium ion
1483 1475 1476 1481 3 20.50160 0.00000 -20.50160 0.00000 0.00000 0.00000 ; imides
1483 1484 1492 1493 3 30.28798 -4.81160 -25.47638 0.00000 0.00000 0.00000 ; imides
1484 1492 1493 1474 3 30.28798 -4.81160 -25.47638 0.00000 0.00000 0.00000 ; imides
1484 1492 1493 1494 3 33.20422 0.00000 -33.20422 0.00000 0.00000 0.00000 ; methylguanidinium ion
1485 1484 1492 1493 3 33.20422 0.00000 -33.20422 0.00000 0.00000 0.00000 ; methylguanidinium ion
1486 1487 8296 8295 3 1.58992 4.76976 0.00000 -6.35968 0.00000 0.00000
1486 1487 8296 8297 3 1.58992 4.76976 0.00000 -6.35968 0.00000 0.00000
1486 1487 8296 8298 3 1.58992 4.76976 0.00000 -6.35968 0.00000 0.00000
1487 8296 8295 8294 3 1.78866 3.49154 0.53555 -5.81576 0.00000 0.00000
1487 8296 8295 8299 3 -1.26775 3.02085 1.74473 -3.49782 0.00000 0.00000
1492 1484 1485 1486 3 33.20422 0.00000 -33.20422 0.00000 0.00000 0.00000 ; methylguanidinium ion
1492 1484 1485 1490 3 20.50160 0.00000 -20.50160 0.00000 0.00000 0.00000 ; imides
1493 1474 1475 1476 3 33.20422 0.00000 -33.20422 0.00000 0.00000 0.00000 ; methylguanidinium ion
1493 1474 1475 1483 3 30.28798 -4.81160 -25.47638 0.00000 0.00000 0.00000 ; imides
1495 1496 3604 3603 3 1.58992 4.76976 0.00000 -6.35968 0.00000 0.00000
1495 1496 3604 3605 3 1.58992 4.76976 0.00000 -6.35968 0.00000 0.00000
1495 1496 3604 3606 3 1.58992 4.76976 0.00000 -6.35968 0.00000 0.00000
1496 3604 3603 3602 3 1.78866 3.49154 0.53555 -5.81576 0.00000 0.00000
1496 3604 3603 3607 3 -1.26775 3.02085 1.74473 -3.49782 0.00000 0.00000
1501 1502 1510 1511 3 30.28798 -4.81160 -25.47638 0.00000 0.00000 0.00000 ; imides
1501 1520 1521 1522 3 33.20422 0.00000 -33.20422 0.00000 0.00000 0.00000 ; methylguanidinium ion
1501 1520 1521 1526 3 20.50160 0.00000 -20.50160 0.00000 0.00000 0.00000 ; imides
1502 1501 1520 1519 3 30.28798 -4.81160 -25.47638 0.00000 0.00000 0.00000 ; imides
1502 1501 1520 1521 3 33.20422 0.00000 -33.20422 0.00000 0.00000 0.00000 ; methylguanidinium ion
1502 1510 1511 1512 3 33.20422 0.00000 -33.20422 0.00000 0.00000 0.00000 ; methylguanidinium ion
1502 1510 1511 1519 3 30.28798 -4.81160 -25.47638 0.00000 0.00000 0.00000 ; imides
1503 1502 1510 1511 3 33.20422 0.00000 -33.20422 0.00000 0.00000 0.00000 ; methylguanidinium ion
1504 1505 10167 10166 3 1.58992 4.76976 0.00000 -6.35968 0.00000 0.00000
1504 1505 10167 10168 3 1.58992 4.76976 0.00000 -6.35968 0.00000 0.00000
1504 1505 10167 10169 3 1.58992 4.76976 0.00000 -6.35968 0.00000 0.00000
1505 10167 10166 10165 3 1.78866 3.49154 0.53555 -5.81576 0.00000 0.00000
1505 10167 10166 10170 3 -1.26775 3.02085 1.74473 -3.49782 0.00000 0.00000
1510 1502 1503 1504 3 33.20422 0.00000 -33.20422 0.00000 0.00000 0.00000 ; methylguanidinium ion
1510 1502 1503 1508 3 20.50160 0.00000 -20.50160 0.00000 0.00000 0.00000 ; imides
1510 1511 1519 1520 3 30.28798 -4.81160 -25.47638 0.00000 0.00000 0.00000 ; imides
1511 1519 1520 1501 3 30.28798 -4.81160 -25.47638 0.00000 0.00000 0.00000 ; imides
1511 1519 1520 1521 3 33.20422 0.00000 -33.20422 0.00000 0.00000 0.00000 ; methylguanidinium ion
1512 1511 1519 1520 3 33.20422 0.00000 -33.20422 0.00000 0.00000 0.00000 ; methylguanidinium ion
1513 1514 11759 11758 3 1.58992 4.76976 0.00000 -6.35968 0.00000 0.00000
1513 1514 11759 11760 3 1.58992 4.76976 0.00000 -6.35968 0.00000 0.00000
1513 1514 11759 11761 3 1.58992 4.76976 0.00000 -6.35968 0.00000 0.00000
1514 11759 11758 11757 3 1.78866 3.49154 0.53555 -5.81576 0.00000 0.00000
1514 11759 11758 11762 3 -1.26775 3.02085 1.74473 -3.49782 0.00000 0.00000
1519 1511 1512 1513 3 33.20422 0.00000 -33.20422 0.00000 0.00000 0.00000 ; methylguanidinium ion
1519 1511 1512 1517 3 20.50160 0.00000 -20.50160 0.00000 0.00000 0.00000 ; imides
1520 1501 1502 1503 3 33.20422 0.00000 -33.20422 0.00000 0.00000 0.00000 ; methylguanidinium ion
1520 1501 1502 1510 3 30.28798 -4.81160 -25.47638 0.00000 0.00000 0.00000 ; imides
1522 1523 3913 3912 3 1.58992 4.76976 0.00000 -6.35968 0.00000 0.00000
1522 1523 3913 3914 3 1.58992 4.76976 0.00000 -6.35968 0.00000 0.00000
1522 1523 3913 3915 3 1.58992 4.76976 0.00000 -6.35968 0.00000 0.00000
1523 3913 3912 3911 3 1.78866 3.49154 0.53555 -5.81576 0.00000 0.00000
1523 3913 3912 3916 3 -1.26775 3.02085 1.74473 -3.49782 0.00000 0.00000
1528 1529 1537 1538 3 30.28798 -4.81160 -25.47638 0.00000 0.00000 0.00000 ; imides
1528 1547 1548 1549 3 33.20422 0.00000 -33.20422 0.00000 0.00000 0.00000 ; methylguanidinium ion
1528 1547 1548 1553 3 20.50160 0.00000 -20.50160 0.00000 0.00000 0.00000 ; imides
1529 1528 1547 1546 3 30.28798 -4.81160 -25.47638 0.00000 0.00000 0.00000 ; imides
1529 1528 1547 1548 3 33.20422 0.00000 -33.20422 0.00000 0.00000 0.00000 ; methylguanidinium ion
1529 1537 1538 1539 3 33.20422 0.00000 -33.20422 0.00000 0.00000 0.00000 ; methylguanidinium ion
1529 1537 1538 1546 3 30.28798 -4.81160 -25.47638 0.00000 0.00000 0.00000 ; imides
1530 1529 1537 1538 3 33.20422 0.00000 -33.20422 0.00000 0.00000 0.00000 ; methylguanidinium ion
1531 1532 3596 3595 3 1.58992 4.76976 0.00000 -6.35968 0.00000 0.00000
1531 1532 3596 3597 3 1.58992 4.76976 0.00000 -6.35968 0.00000 0.00000
1531 1532 3596 3598 3 1.58992 4.76976 0.00000 -6.35968 0.00000 0.00000
1532 3596 3595 3594 3 1.78866 3.49154 0.53555 -5.81576 0.00000 0.00000
1532 3596 3595 3599 3 -1.26775 3.02085 1.74473 -3.49782 0.00000 0.00000
1537 1529 1530 1531 3 33.20422 0.00000 -33.20422 0.00000 0.00000 0.00000 ; methylguanidinium ion
1537 1529 1530 1535 3 20.50160 0.00000 -20.50160 0.00000 0.00000 0.00000 ; imides
1537 1538 1546 1547 3 30.28798 -4.81160 -25.47638 0.00000 0.00000 0.00000 ; imides
1538 1546 1547 1528 3 30.28798 -4.81160 -25.47638 0.00000 0.00000 0.00000 ; imides
1538 1546 1547 1548 3 33.20422 0.00000 -33.20422 0.00000 0.00000 0.00000 ; methylguanidinium ion
1539 1538 1546 1547 3 33.20422 0.00000 -33.20422 0.00000 0.00000 0.00000 ; methylguanidinium ion
1540 1541 9266 9265 3 1.58992 4.76976 0.00000 -6.35968 0.00000 0.00000
1540 1541 9266 9267 3 1.58992 4.76976 0.00000 -6.35968 0.00000 0.00000
1540 1541 9266 9268 3 1.58992 4.76976 0.00000 -6.35968 0.00000 0.00000
1541 9266 9265 9264 3 1.78866 3.49154 0.53555 -5.81576 0.00000 0.00000
1541 9266 9265 9269 3 -1.26775 3.02085 1.74473 -3.49782 0.00000 0.00000
1546 1538 1539 1540 3 33.20422 0.00000 -33.20422 0.00000 0.00000 0.00000 ; methylguanidinium ion
1546 1538 1539 1544 3 20.50160 0.00000 -20.50160 0.00000 0.00000 0.00000 ; imides
1547 1528 1529 1530 3 33.20422 0.00000 -33.20422 0.00000 0.00000 0.00000 ; methylguanidinium ion
1547 1528 1529 1537 3 30.28798 -4.81160 -25.47638 0.00000 0.00000 0.00000 ; imides
1549 1550 8169 8168 3 1.58992 4.76976 0.00000 -6.35968 0.00000 0.00000
1549 1550 8169 8170 3 1.58992 4.76976 0.00000 -6.35968 0.00000 0.00000
1549 1550 8169 8171 3 1.58992 4.76976 0.00000 -6.35968 0.00000 0.00000
1550 8169 8168 8167 3 1.78866 3.49154 0.53555 -5.81576 0.00000 0.00000
1550 8169 8168 8172 3 -1.26775 3.02085 1.74473 -3.49782 0.00000 0.00000
1555 1556 1563 1564 3 30.28798 -4.81160 -25.47638 0.00000 0.00000 0.00000 ; imides
1555 1573 1574 1575 3 33.20422 0.00000 -33.20422 0.00000 0.00000 0.00000 ; methylguanidinium ion
1555 1573 1574 1579 3 20.50160 0.00000 -20.50160 0.00000 0.00000 0.00000 ; imides
1556 1555 1573 1572 3 30.28798 -4.81160 -25.47638 0.00000 0.00000 0.00000 ; imides
1556 1555 1573 1574 3 33.20422 0.00000 -33.20422 0.00000 0.00000 0.00000 ; methylguanidinium ion
1556 1563 1564 1565 3 33.20422 0.00000 -33.20422 0.00000 0.00000 0.00000 ; methylguanidinium ion
1556 1563 1564 1572 3 30.28798 -4.81160 -25.47638 0.00000 0.00000 0.00000 ; imides
1557 1556 1563 1564 3 33.20422 0.00000 -33.20422 0.00000 0.00000 0.00000 ; methylguanidinium ion
1558 1297 1296 1295 3 1.58992 4.76976 0.00000 -6.35968 0.00000 0.00000
1558 1297 1296 1298 3 1.58992 4.76976 0.00000 -6.35968 0.00000 0.00000
1558 1297 1296 1299 3 1.58992 4.76976 0.00000 -6.35968 0.00000 0.00000
1563 1556 1557 1558 3 33.20422 0.00000 -33.20422 0.00000 0.00000 0.00000 ; methylguanidinium ion
1563 1556 1557 1561 3 20.50160 0.00000 -20.50160 0.00000 0.00000 0.00000 ; imides
1563 1564 1572 1573 3 30.28798 -4.81160 -25.47638 0.00000 0.00000 0.00000 ; imides
1564 1572 1573 1555 3 30.28798 -4.81160 -25.47638 0.00000 0.00000 0.00000 ; imides
1564 1572 1573 1574 3 33.20422 0.00000 -33.20422 0.00000 0.00000 0.00000 ; methylguanidinium ion
1565 1564 1572 1573 3 33.20422 0.00000 -33.20422 0.00000 0.00000 0.00000 ; methylguanidinium ion
1566 1567 1907 1906 3 1.58992 4.76976 0.00000 -6.35968 0.00000 0.00000
1566 1567 1907 1908 3 1.58992 4.76976 0.00000 -6.35968 0.00000 0.00000
1566 1567 1907 1909 3 1.58992 4.76976 0.00000 -6.35968 0.00000 0.00000
1567 1907 1906 1905 3 1.78866 3.49154 0.53555 -5.81576 0.00000 0.00000
1567 1907 1906 1910 3 -1.26775 3.02085 1.74473 -3.49782 0.00000 0.00000
1572 1564 1565 1566 3 33.20422 0.00000 -33.20422 0.00000 0.00000 0.00000 ; methylguanidinium ion
1572 1564 1565 1570 3 20.50160 0.00000 -20.50160 0.00000 0.00000 0.00000 ; imides
1573 1555 1556 1557 3 33.20422 0.00000 -33.20422 0.00000 0.00000 0.00000 ; methylguanidinium ion
1573 1555 1556 1563 3 30.28798 -4.81160 -25.47638 0.00000 0.00000 0.00000 ; imides
1575 1576 10292 10291 3 1.58992 4.76976 0.00000 -6.35968 0.00000 0.00000
1575 1576 10292 10293 3 1.58992 4.76976 0.00000 -6.35968 0.00000 0.00000
1575 1576 10292 10294 3 1.58992 4.76976 0.00000 -6.35968 0.00000 0.00000
1576 10292 10291 10290 3 1.78866 3.49154 0.53555 -5.81576 0.00000 0.00000
1576 10292 10291 10295 3 -1.26775 3.02085 1.74473 -3.49782 0.00000 0.00000
1581 1582 1590 1591 3 30.28798 -4.81160 -25.47638 0.00000 0.00000 0.00000 ; imides
1581 1600 1601 1602 3 33.20422 0.00000 -33.20422 0.00000 0.00000 0.00000 ; methylguanidinium ion
1581 1600 1601 1606 3 20.50160 0.00000 -20.50160 0.00000 0.00000 0.00000 ; imides
1582 1581 1600 1599 3 30.28798 -4.81160 -25.47638 0.00000 0.00000 0.00000 ; imides
1582 1581 1600 1601 3 33.20422 0.00000 -33.20422 0.00000 0.00000 0.00000 ; methylguanidinium ion
1582 1590 1591 1592 3 33.20422 0.00000 -33.20422 0.00000 0.00000 0.00000 ; methylguanidinium ion
1582 1590 1591 1599 3 30.28798 -4.81160 -25.47638 0.00000 0.00000 0.00000 ; imides
1583 1582 1590 1591 3 33.20422 0.00000 -33.20422 0.00000 0.00000 0.00000 ; methylguanidinium ion
1584 1585 3753 3752 3 1.58992 4.76976 0.00000 -6.35968 0.00000 0.00000
1584 1585 3753 3754 3 1.58992 4.76976 0.00000 -6.35968 0.00000 0.00000
1584 1585 3753 3755 3 1.58992 4.76976 0.00000 -6.35968 0.00000 0.00000
1585 3753 3752 3751 3 1.78866 3.49154 0.53555 -5.81576 0.00000 0.00000
1585 3753 3752 3756 3 -1.26775 3.02085 1.74473 -3.49782 0.00000 0.00000
1590 1582 1583 1584 3 33.20422 0.00000 -33.20422 0.00000 0.00000 0.00000 ; methylguanidinium ion
1590 1582 1583 1588 3 20.50160 0.00000 -20.50160 0.00000 0.00000 0.00000 ; imides
1590 1591 1599 1600 3 30.28798 -4.81160 -25.47638 0.00000 0.00000 0.00000 ; imides
1591 1599 1600 1581 3 30.28798 -4.81160 -25.47638 0.00000 0.00000 0.00000 ; imides
1591 1599 1600 1601 3 33.20422 0.00000 -33.20422 0.00000 0.00000 0.00000 ; methylguanidinium ion
1592 1591 1599 1600 3 33.20422 0.00000 -33.20422 0.00000 0.00000 0.00000 ; methylguanidinium ion
1593 1594 10020 10019 3 1.58992 4.76976 0.00000 -6.35968 0.00000 0.00000
1593 1594 10020 10021 3 1.58992 4.76976 0.00000 -6.35968 0.00000 0.00000
1593 1594 10020 10022 3 1.58992 4.76976 0.00000 -6.35968 0.00000 0.00000
1594 10020 10019 10018 3 1.78866 3.49154 0.53555 -5.81576 0.00000 0.00000
1594 10020 10019 10023 3 -1.26775 3.02085 1.74473 -3.49782 0.00000 0.00000
1599 1591 1592 1593 3 33.20422 0.00000 -33.20422 0.00000 0.00000 0.00000 ; methylguanidinium ion
1599 1591 1592 1597 3 20.50160 0.00000 -20.50160 0.00000 0.00000 0.00000 ; imides
1600 1581 1582 1583 3 33.20422 0.00000 -33.20422 0.00000 0.00000 0.00000 ; methylguanidinium ion
1600 1581 1582 1590 3 30.28798 -4.81160 -25.47638 0.00000 0.00000 0.00000 ; imides
1602 1603 1675 1674 3 1.58992 4.76976 0.00000 -6.35968 0.00000 0.00000
1602 1603 1675 1676 3 1.58992 4.76976 0.00000 -6.35968 0.00000 0.00000
1602 1603 1675 1677 3 1.58992 4.76976 0.00000 -6.35968 0.00000 0.00000
1603 1675 1674 1673 3 1.78866 3.49154 0.53555 -5.81576 0.00000 0.00000
1603 1675 1674 1678 3 -1.26775 3.02085 1.74473 -3.49782 0.00000 0.00000
1608 1609 1617 1618 3 30.28798 -4.81160 -25.47638 0.00000 0.00000 0.00000 ; imides
1608 1627 1628 1629 3 33.20422 0.00000 -33.20422 0.00000 0.00000 0.00000 ; methylguanidinium ion
1608 1627 1628 1633 3 20.50160 0.00000 -20.50160 0.00000 0.00000 0.00000 ; imides
1609 1608 1627 1626 3 30.28798 -4.81160 -25.47638 0.00000 0.00000 0.00000 ; imides
1609 1608 1627 1628 3 33.20422 0.00000 -33.20422 0.00000 0.00000 0.00000 ; methylguanidinium ion
1609 1617 1618 1619 3 33.20422 0.00000 -33.20422 0.00000 0.00000 0.00000 ; methylguanidinium ion
1609 1617 1618 1626 3 30.28798 -4.81160 -25.47638 0.00000 0.00000 0.00000 ; imides
1610 1609 1617 1618 3 33.20422 0.00000 -33.20422 0.00000 0.00000 0.00000 ; methylguanidinium ion
1611 1612 7203 7202 3 1.58992 4.76976 0.00000 -6.35968 0.00000 0.00000
1611 1612 7203 7204 3 1.58992 4.76976 0.00000 -6.35968 0.00000 0.00000
1611 1612 7203 7205 3 1.58992 4.76976 0.00000 -6.35968 0.00000 0.00000
1612 7203 7202 7201 3 1.78866 3.49154 0.53555 -5.81576 0.00000 0.00000
1612 7203 7202 7206 3 -1.26775 3.02085 1.74473 -3.49782 0.00000 0.00000
1617 1609 1610 1611 3 33.20422 0.00000 -33.20422 0.00000 0.00000 0.00000 ; methylguanidinium ion
1617 1609 1610 1615 3 20.50160 0.00000 -20.50160 0.00000 0.00000 0.00000 ; imides
1617 1618 1626 1627 3 30.28798 -4.81160 -25.47638 0.00000 0.00000 0.00000 ; imides
1618 1626 1627 1608 3 30.28798 -4.81160 -25.47638 0.00000 0.00000 0.00000 ; imides
1618 1626 1627 1628 3 33.20422 0.00000 -33.20422 0.00000 0.00000 0.00000 ; methylguanidinium ion
1619 1618 1626 1627 3 33.20422 0.00000 -33.20422 0.00000 0.00000 0.00000 ; methylguanidinium ion
1620 1621 12890 12889 3 1.58992 4.76976 0.00000 -6.35968 0.00000 0.00000
1620 1621 12890 12891 3 1.58992 4.76976 0.00000 -6.35968 0.00000 0.00000
1620 1621 12890 12892 3 1.58992 4.76976 0.00000 -6.35968 0.00000 0.00000
1621 12890 12889 12888 3 1.78866 3.49154 0.53555 -5.81576 0.00000 0.00000
1621 12890 12889 12893 3 -1.26775 3.02085 1.74473 -3.49782 0.00000 0.00000
1626 1618 1619 1620 3 33.20422 0.00000 -33.20422 0.00000 0.00000 0.00000 ; methylguanidinium ion
1626 1618 1619 1624 3 20.50160 0.00000 -20.50160 0.00000 0.00000 0.00000 ; imides
1627 1608 1609 1610 3 33.20422 0.00000 -33.20422 0.00000 0.00000 0.00000 ; methylguanidinium ion
1627 1608 1609 1617 3 30.28798 -4.81160 -25.47638 0.00000 0.00000 0.00000 ; imides
1629 1630 10366 10365 3 1.58992 4.76976 0.00000 -6.35968 0.00000 0.00000
1629 1630 10366 10367 3 1.58992 4.76976 0.00000 -6.35968 0.00000 0.00000
1629 1630 10366 10368 3 1.58992 4.76976 0.00000 -6.35968 0.00000 0.00000
1630 10366 10365 10364 3 1.78866 3.49154 0.53555 -5.81576 0.00000 0.00000
1630 10366 10365 10369 3 -1.26775 3.02085 1.74473 -3.49782 0.00000 0.00000
1635 1636 1644 1645 3 30.28798 -4.81160 -25.47638 0.00000 0.00000 0.00000 ; imides
1635 1655 1656 1657 3 33.20422 0.00000 -33.20422 0.00000 0.00000 0.00000 ; methylguanidinium ion
1635 1655 1656 1661 3 20.50160 0.00000 -20.50160 0.00000 0.00000 0.00000 ; imides
1636 1635 1655 1654 3 30.28798 -4.81160 -25.47638 0.00000 0.00000 0.00000 ; imides
1636 1635 1655 1656 3 33.20422 0.00000 -33.20422 0.00000 0.00000 0.00000 ; methylguanidinium ion
1636 1644 1645 1646 3 33.20422 0.00000 -33.20422 0.00000 0.00000 0.00000 ; methylguanidinium ion
1636 1644 1645 1654 3 30.28798 -4.81160 -25.47638 0.00000 0.00000 0.00000 ; imides
1637 1636 1644 1645 3 33.20422 0.00000 -33.20422 0.00000 0.00000 0.00000 ; methylguanidinium ion
1638 1639 12820 12819 3 1.58992 4.76976 0.00000 -6.35968 0.00000 0.00000
1638 1639 12820 12821 3 1.58992 4.76976 0.00000 -6.35968 0.00000 0.00000
1638 1639 12820 12822 3 1.58992 4.76976 0.00000 -6.35968 0.00000 0.00000
1639 12820 12819 12818 3 1.78866 3.49154 0.53555 -5.81576 0.00000 0.00000
1639 12820 12819 12823 3 -1.26775 3.02085 1.74473 -3.49782 0.00000 0.00000
1644 1636 1637 1638 3 33.20422 0.00000 -33.20422 0.00000 0.00000 0.00000 ; methylguanidinium ion
1644 1636 1637 1642 3 20.50160 0.00000 -20.50160 0.00000 0.00000 0.00000 ; imides
1644 1645 1654 1655 3 30.28798 -4.81160 -25.47638 0.00000 0.00000 0.00000 ; imides
1645 1654 1655 1635 3 30.28798 -4.81160 -25.47638 0.00000 0.00000 0.00000 ; imides
1645 1654 1655 1656 3 33.20422 0.00000 -33.20422 0.00000 0.00000 0.00000 ; methylguanidinium ion
1646 1645 1654 1655 3 33.20422 0.00000 -33.20422 0.00000 0.00000 0.00000 ; methylguanidinium ion
1654 1645 1646 1647 3 33.20422 0.00000 -33.20422 0.00000 0.00000 0.00000 ; methylguanidinium ion
1654 1645 1646 1652 3 20.50160 0.00000 -20.50160 0.00000 0.00000 0.00000 ; imides
1655 1635 1636 1637 3 33.20422 0.00000 -33.20422 0.00000 0.00000 0.00000 ; methylguanidinium ion
1655 1635 1636 1644 3 30.28798 -4.81160 -25.47638 0.00000 0.00000 0.00000 ; imides
1657 1658 7073 7072 3 1.58992 4.76976 0.00000 -6.35968 0.00000 0.00000
1657 1658 7073 7074 3 1.58992 4.76976 0.00000 -6.35968 0.00000 0.00000
1657 1658 7073 7075 3 1.58992 4.76976 0.00000 -6.35968 0.00000 0.00000
1658 7073 7072 7071 3 1.78866 3.49154 0.53555 -5.81576 0.00000 0.00000
1658 7073 7072 7076 3 -1.26775 3.02085 1.74473 -3.49782 0.00000 0.00000
1663 1664 1672 1673 3 30.28798 -4.81160 -25.47638 0.00000 0.00000 0.00000 ; imides
1663 1681 1682 1683 3 33.20422 0.00000 -33.20422 0.00000 0.00000 0.00000 ; methylguanidinium ion
1663 1681 1682 1687 3 20.50160 0.00000 -20.50160 0.00000 0.00000 0.00000 ; imides
1664 1663 1681 1680 3 30.28798 -4.81160 -25.47638 0.00000 0.00000 0.00000 ; imides
1664 1663 1681 1682 3 33.20422 0.00000 -33.20422 0.00000 0.00000 0.00000 ; methylguanidinium ion
1664 1672 1673 1674 3 33.20422 0.00000 -33.20422 0.00000 0.00000 0.00000 ; methylguanidinium ion
1664 1672 1673 1680 3 30.28798 -4.81160 -25.47638 0.00000 0.00000 0.00000 ; imides
1665 1664 1672 1673 3 33.20422 0.00000 -33.20422 0.00000 0.00000 0.00000 ; methylguanidinium ion
1666 1667 10643 10642 3 1.58992 4.76976 0.00000 -6.35968 0.00000 0.00000
1666 1667 10643 10644 3 1.58992 4.76976 0.00000 -6.35968 0.00000 0.00000
1666 1667 10643 10645 3 1.58992 4.76976 0.00000 -6.35968 0.00000 0.00000
1667 10643 10642 10641 3 1.78866 3.49154 0.53555 -5.81576 0.00000 0.00000
1667 10643 10642 10646 3 -1.26775 3.02085 1.74473 -3.49782 0.00000 0.00000
1672 1664 1665 1666 3 33.20422 0.00000 -33.20422 0.00000 0.00000 0.00000 ; methylguanidinium ion
1672 1664 1665 1670 3 20.50160 0.00000 -20.50160 0.00000 0.00000 0.00000 ; imides
1672 1673 1680 1681 3 30.28798 -4.81160 -25.47638 0.00000 0.00000 0.00000 ; imides
1673 1680 1681 1663 3 30.28798 -4.81160 -25.47638 0.00000 0.00000 0.00000 ; imides
1673 1680 1681 1682 3 33.20422 0.00000 -33.20422 0.00000 0.00000 0.00000 ; methylguanidinium ion
1674 1673 1680 1681 3 33.20422 0.00000 -33.20422 0.00000 0.00000 0.00000 ; methylguanidinium ion
1675 1603 1602 1601 3 1.58992 4.76976 0.00000 -6.35968 0.00000 0.00000
1675 1603 1602 1604 3 1.58992 4.76976 0.00000 -6.35968 0.00000 0.00000
1675 1603 1602 1605 3 1.58992 4.76976 0.00000 -6.35968 0.00000 0.00000
1680 1673 1674 1675 3 33.20422 0.00000 -33.20422 0.00000 0.00000 0.00000 ; methylguanidinium ion
1680 1673 1674 1678 3 20.50160 0.00000 -20.50160 0.00000 0.00000 0.00000 ; imides
1681 1663 1664 1665 3 33.20422 0.00000 -33.20422 0.00000 0.00000 0.00000 ; methylguanidinium ion
1681 1663 1664 1672 3 30.28798 -4.81160 -25.47638 0.00000 0.00000 0.00000 ; imides
1683 1684 9622 9621 3 1.58992 4.76976 0.00000 -6.35968 0.00000 0.00000
1683 1684 9622 9623 3 1.58992 4.76976 0.00000 -6.35968 0.00000 0.00000
1683 1684 9622 9624 3 1.58992 4.76976 0.00000 -6.35968 0.00000 0.00000
1684 9622 9621 9620 3 1.78866 3.49154 0.53555 -5.81576 0.00000 0.00000
1684 9622 9621 9625 3 -1.26775 3.02085 1.74473 -3.49782 0.00000 0.00000
1689 1690 1698 1699 3 30.28798 -4.81160 -25.47638 0.00000 0.00000 0.00000 ; imides
1689 1707 1708 1709 3 33.20422 0.00000 -33.20422 0.00000 0.00000 0.00000 ; methylguanidinium ion
1689 1707 1708 1712 3 20.50160 0.00000 -20.50160 0.00000 0.00000 0.00000 ; imides
1690 1689 1707 1706 3 30.28798 -4.81160 -25.47638 0.00000 0.00000 0.00000 ; imides
1690 1689 1707 1708 3 33.20422 0.00000 -33.20422 0.00000 0.00000 0.00000 ; methylguanidinium ion
1690 1698 1699 1700 3 33.20422 0.00000 -33.20422 0.00000 0.00000 0.00000 ; methylguanidinium ion
1690 1698 1699 1706 3 30.28798 -4.81160 -25.47638 0.00000 0.00000 0.00000 ; imides
1691 1690 1698 1699 3 33.20422 0.00000 -33.20422 0.00000 0.00000 0.00000 ; methylguanidinium ion
1692 1693 2704 2703 3 1.58992 4.76976 0.00000 -6.35968 0.00000 0.00000
1692 1693 2704 2705 3 1.58992 4.76976 0.00000 -6.35968 0.00000 0.00000
1692 1693 2704 2706 3 1.58992 4.76976 0.00000 -6.35968 0.00000 0.00000
1693 2704 2703 2702 3 1.78866 3.49154 0.53555 -5.81576 0.00000 0.00000
1693 2704 2703 2707 3 -1.26775 3.02085 1.74473 -3.49782 0.00000 0.00000
1698 1690 1691 1692 3 33.20422 0.00000 -33.20422 0.00000 0.00000 0.00000 ; methylguanidinium ion
1698 1690 1691 1696 3 20.50160 0.00000 -20.50160 0.00000 0.00000 0.00000 ; imides
1698 1699 1706 1707 3 30.28798 -4.81160 -25.47638 0.00000 0.00000 0.00000 ; imides
1699 1706 1707 1689 3 30.28798 -4.81160 -25.47638 0.00000 0.00000 0.00000 ; imides
1699 1706 1707 1708 3 33.20422 0.00000 -33.20422 0.00000 0.00000 0.00000 ; methylguanidinium ion
1700 1699 1706 1707 3 33.20422 0.00000 -33.20422 0.00000 0.00000 0.00000 ; methylguanidinium ion
1701 126 125 124 3 1.58992 4.76976 0.00000 -6.35968 0.00000 0.00000
1701 126 125 127 3 1.58992 4.76976 0.00000 -6.35968 0.00000 0.00000
1701 126 125 128 3 1.58992 4.76976 0.00000 -6.35968 0.00000 0.00000
1706 1699 1700 1701 3 33.20422 0.00000 -33.20422 0.00000 0.00000 0.00000 ; methylguanidinium ion
1706 1699 1700 1704 3 20.50160 0.00000 -20.50160 0.00000 0.00000 0.00000 ; imides
1707 1689 1690 1691 3 33.20422 0.00000 -33.20422 0.00000 0.00000 0.00000 ; methylguanidinium ion
1707 1689 1690 1698 3 30.28798 -4.81160 -25.47638 0.00000 0.00000 0.00000 ; imides
1709 33 32 31 3 1.58992 4.76976 0.00000 -6.35968 0.00000 0.00000
1709 33 32 34 3 1.58992 4.76976 0.00000 -6.35968 0.00000 0.00000
1709 33 32 35 3 1.58992 4.76976 0.00000 -6.35968 0.00000 0.00000
1714 1715 1723 1724 3 30.28798 -4.81160 -25.47638 0.00000 0.00000 0.00000 ; imides
1714 1733 1734 1735 3 33.20422 0.00000 -33.20422 0.00000 0.00000 0.00000 ; methylguanidinium ion
1714 1733 1734 1739 3 20.50160 0.00000 -20.50160 0.00000 0.00000 0.00000 ; imides
1715 1714 1733 1732 3 30.28798 -4.81160 -25.47638 0.00000 0.00000 0.00000 ; imides
1715 1714 1733 1734 3 33.20422 0.00000 -33.20422 0.00000 0.00000 0.00000 ; methylguanidinium ion
1715 1723 1724 1725 3 33.20422 0.00000 -33.20422 0.00000 0.00000 0.00000 ; methylguanidinium ion
1715 1723 1724 1732 3 30.28798 -4.81160 -25.47638 0.00000 0.00000 0.00000 ; imides
1716 1715 1723 1724 3 33.20422 0.00000 -33.20422 0.00000 0.00000 0.00000 ; methylguanidinium ion
1717 1718 2085 2084 3 1.58992 4.76976 0.00000 -6.35968 0.00000 0.00000
1717 1718 2085 2086 3 1.58992 4.76976 0.00000 -6.35968 0.00000 0.00000
1717 1718 2085 2087 3 1.58992 4.76976 0.00000 -6.35968 0.00000 0.00000
1718 2085 2084 2083 3 1.78866 3.49154 0.53555 -5.81576 0.00000 0.00000
1718 2085 2084 2088 3 -1.26775 3.02085 1.74473 -3.49782 0.00000 0.00000
1723 1715 1716 1717 3 33.20422 0.00000 -33.20422 0.00000 0.00000 0.00000 ; methylguanidinium ion
1723 1715 1716 1721 3 20.50160 0.00000 -20.50160 0.00000 0.00000 0.00000 ; imides
1723 1724 1732 1733 3 30.28798 -4.81160 -25.47638 0.00000 0.00000 0.00000 ; imides
1724 1732 1733 1714 3 30.28798 -4.81160 -25.47638 0.00000 0.00000 0.00000 ; imides
1724 1732 1733 1734 3 33.20422 0.00000 -33.20422 0.00000 0.00000 0.00000 ; methylguanidinium ion
1725 1724 1732 1733 3 33.20422 0.00000 -33.20422 0.00000 0.00000 0.00000 ; methylguanidinium ion
1726 1727 9081 9080 3 1.58992 4.76976 0.00000 -6.35968 0.00000 0.00000
1726 1727 9081 9082 3 1.58992 4.76976 0.00000 -6.35968 0.00000 0.00000
1726 1727 9081 9083 3 1.58992 4.76976 0.00000 -6.35968 0.00000 0.00000
1727 9081 9080 9079 3 1.78866 3.49154 0.53555 -5.81576 0.00000 0.00000
1727 9081 9080 9084 3 -1.26775 3.02085 1.74473 -3.49782 0.00000 0.00000
1732 1724 1725 1726 3 33.20422 0.00000 -33.20422 0.00000 0.00000 0.00000 ; methylguanidinium ion
1732 1724 1725 1730 3 20.50160 0.00000 -20.50160 0.00000 0.00000 0.00000 ; imides
1733 1714 1715 1716 3 33.20422 0.00000 -33.20422 0.00000 0.00000 0.00000 ; methylguanidinium ion
1733 1714 1715 1723 3 30.28798 -4.81160 -25.47638 0.00000 0.00000 0.00000 ; imides
1735 1736 9696 9695 3 1.58992 4.76976 0.00000 -6.35968 0.00000 0.00000
1735 1736 9696 9697 3 1.58992 4.76976 0.00000 -6.35968 0.00000 0.00000
1735 1736 9696 9698 3 1.58992 4.76976 0.00000 -6.35968 0.00000 0.00000
1736 9696 9695 9694 3 1.78866 3.49154 0.53555 -5.81576 0.00000 0.00000
1736 9696 9695 9699 3 -1.26775 3.02085 1.74473 -3.49782 0.00000 0.00000
1741 1742 1750 1751 3 30.28798 -4.81160 -25.47638 0.00000 0.00000 0.00000 ; imides
1741 1760 1761 1762 3 33.20422 0.00000 -33.20422 0.00000 0.00000 0.00000 ; methylguanidinium ion
1741 1760 1761 1767 3 20.50160 0.00000 -20.50160 0.00000 0.00000 0.00000 ; imides
1742 1741 1760 1759 3 30.28798 -4.81160 -25.47638 0.00000 0.00000 0.00000 ; imides
1742 1741 1760 1761 3 33.20422 0.00000 -33.20422 0.00000 0.00000 0.00000 ; methylguanidinium ion
1742 1750 1751 1752 3 33.20422 0.00000 -33.20422 0.00000 0.00000 0.00000 ; methylguanidinium ion
1742 1750 1751 1759 3 30.28798 -4.81160 -25.47638 0.00000 0.00000 0.00000 ; imides
1743 1742 1750 1751 3 33.20422 0.00000 -33.20422 0.00000 0.00000 0.00000 ; methylguanidinium ion
1744 1745 11642 11641 3 1.58992 4.76976 0.00000 -6.35968 0.00000 0.00000
1744 1745 11642 11643 3 1.58992 4.76976 0.00000 -6.35968 0.00000 0.00000
1744 1745 11642 11644 3 1.58992 4.76976 0.00000 -6.35968 0.00000 0.00000
1745 11642 11641 11640 3 1.78866 3.49154 0.53555 -5.81576 0.00000 0.00000
1745 11642 11641 11645 3 -1.26775 3.02085 1.74473 -3.49782 0.00000 0.00000
1750 1742 1743 1744 3 33.20422 0.00000 -33.20422 0.00000 0.00000 0.00000 ; methylguanidinium ion
1750 1742 1743 1748 3 20.50160 0.00000 -20.50160 0.00000 0.00000 0.00000 ; imides
1750 1751 1759 1760 3 30.28798 -4.81160 -25.47638 0.00000 0.00000 0.00000 ; imides
1751 1759 1760 1741 3 30.28798 -4.81160 -25.47638 0.00000 0.00000 0.00000 ; imides
1751 1759 1760 1761 3 33.20422 0.00000 -33.20422 0.00000 0.00000 0.00000 ; methylguanidinium ion
1752 1751 1759 1760 3 33.20422 0.00000 -33.20422 0.00000 0.00000 0.00000 ; methylguanidinium ion
1753 1754 6587 6586 3 1.58992 4.76976 0.00000 -6.35968 0.00000 0.00000
1753 1754 6587 6588 3 1.58992 4.76976 0.00000 -6.35968 0.00000 0.00000
1753 1754 6587 6589 3 1.58992 4.76976 0.00000 -6.35968 0.00000 0.00000
1754 6587 6586 6585 3 1.78866 3.49154 0.53555 -5.81576 0.00000 0.00000
1754 6587 6586 6590 3 -1.26775 3.02085 1.74473 -3.49782 0.00000 0.00000
1759 1751 1752 1753 3 33.20422 0.00000 -33.20422 0.00000 0.00000 0.00000 ; methylguanidinium ion
1759 1751 1752 1757 3 20.50160 0.00000 -20.50160 0.00000 0.00000 0.00000 ; imides
1760 1741 1742 1743 3 33.20422 0.00000 -33.20422 0.00000 0.00000 0.00000 ; methylguanidinium ion
1760 1741 1742 1750 3 30.28798 -4.81160 -25.47638 0.00000 0.00000 0.00000 ; imides
1769 1770 1778 1779 3 30.28798 -4.81160 -25.47638 0.00000 0.00000 0.00000 ; imides
1769 1788 1789 1790 3 33.20422 0.00000 -33.20422 0.00000 0.00000 0.00000 ; methylguanidinium ion
1769 1788 1789 1794 3 20.50160 0.00000 -20.50160 0.00000 0.00000 0.00000 ; imides
1770 1769 1788 1787 3 30.28798 -4.81160 -25.47638 0.00000 0.00000 0.00000 ; imides
1770 1769 1788 1789 3 33.20422 0.00000 -33.20422 0.00000 0.00000 0.00000 ; methylguanidinium ion
1770 1778 1779 1780 3 33.20422 0.00000 -33.20422 0.00000 0.00000 0.00000 ; methylguanidinium ion
1770 1778 1779 1787 3 30.28798 -4.81160 -25.47638 0.00000 0.00000 0.00000 ; imides
1771 1770 1778 1779 3 33.20422 0.00000 -33.20422 0.00000 0.00000 0.00000 ; methylguanidinium ion
1772 1773 4576 4575 3 1.58992 4.76976 0.00000 -6.35968 0.00000 0.00000
1772 1773 4576 4577 3 1.58992 4.76976 0.00000 -6.35968 0.00000 0.00000
1772 1773 4576 4578 3 1.58992 4.76976 0.00000 -6.35968 0.00000 0.00000
1773 4576 4575 4574 3 1.78866 3.49154 0.53555 -5.81576 0.00000 0.00000
1773 4576 4575 4579 3 -1.26775 3.02085 1.74473 -3.49782 0.00000 0.00000
1778 1770 1771 1772 3 33.20422 0.00000 -33.20422 0.00000 0.00000 0.00000 ; methylguanidinium ion
1778 1770 1771 1776 3 20.50160 0.00000 -20.50160 0.00000 0.00000 0.00000 ; imides
1778 1779 1787 1788 3 30.28798 -4.81160 -25.47638 0.00000 0.00000 0.00000 ; imides
1779 1787 1788 1769 3 30.28798 -4.81160 -25.47638 0.00000 0.00000 0.00000 ; imides
1779 1787 1788 1789 3 33.20422 0.00000 -33.20422 0.00000 0.00000 0.00000 ; methylguanidinium ion
1780 1779 1787 1788 3 33.20422 0.00000 -33.20422 0.00000 0.00000 0.00000 ; methylguanidinium ion
1781 1782 11052 11051 3 1.58992 4.76976 0.00000 -6.35968 0.00000 0.00000
1781 1782 11052 11053 3 1.58992 4.76976 0.00000 -6.35968 0.00000 0.00000
1781 1782 11052 11054 3 1.58992 4.76976 0.00000 -6.35968 0.00000 0.00000
1782 11052 11051 11050 3 1.78866 3.49154 0.53555 -5.81576 0.00000 0.00000
1782 11052 11051 11055 3 -1.26775 3.02085 1.74473 -3.49782 0.00000 0.00000
1787 1779 1780 1781 3 33.20422 0.00000 -33.20422 0.00000 0.00000 0.00000 ; methylguanidinium ion
1787 1779 1780 1785 3 20.50160 0.00000 -20.50160 0.00000 0.00000 0.00000 ; imides
1788 1769 1770 1771 3 33.20422 0.00000 -33.20422 0.00000 0.00000 0.00000 ; methylguanidinium ion
1788 1769 1770 1778 3 30.28798 -4.81160 -25.47638 0.00000 0.00000 0.00000 ; imides
1790 1791 5153 5152 3 1.58992 4.76976 0.00000 -6.35968 0.00000 0.00000
1790 1791 5153 5154 3 1.58992 4.76976 0.00000 -6.35968 0.00000 0.00000
1790 1791 5153 5155 3 1.58992 4.76976 0.00000 -6.35968 0.00000 0.00000
1791 5153 5152 5151 3 1.78866 3.49154 0.53555 -5.81576 0.00000 0.00000
1791 5153 5152 5156 3 -1.26775 3.02085 1.74473 -3.49782 0.00000 0.00000
1796 1797 1805 1806 3 30.28798 -4.81160 -25.47638 0.00000 0.00000 0.00000 ; imides
1796 1815 1816 1817 3 33.20422 0.00000 -33.20422 0.00000 0.00000 0.00000 ; methylguanidinium ion
1796 1815 1816 1821 3 20.50160 0.00000 -20.50160 0.00000 0.00000 0.00000 ; imides
1797 1796 1815 1814 3 30.28798 -4.81160 -25.47638 0.00000 0.00000 0.00000 ; imides
1797 1796 1815 1816 3 33.20422 0.00000 -33.20422 0.00000 0.00000 0.00000 ; methylguanidinium ion
1797 1805 1806 1807 3 33.20422 0.00000 -33.20422 0.00000 0.00000 0.00000 ; methylguanidinium ion
1797 1805 1806 1814 3 30.28798 -4.81160 -25.47638 0.00000 0.00000 0.00000 ; imides
1798 1797 1805 1806 3 33.20422 0.00000 -33.20422 0.00000 0.00000 0.00000 ; methylguanidinium ion
1799 1800 11783 11782 3 1.58992 4.76976 0.00000 -6.35968 0.00000 0.00000
1799 1800 11783 11784 3 1.58992 4.76976 0.00000 -6.35968 0.00000 0.00000
1799 1800 11783 11785 3 1.58992 4.76976 0.00000 -6.35968 0.00000 0.00000
1800 11783 11782 11781 3 1.78866 3.49154 0.53555 -5.81576 0.00000 0.00000
1800 11783 11782 11786 3 -1.26775 3.02085 1.74473 -3.49782 0.00000 0.00000
1805 1797 1798 1799 3 33.20422 0.00000 -33.20422 0.00000 0.00000 0.00000 ; methylguanidinium ion
1805 1797 1798 1803 3 20.50160 0.00000 -20.50160 0.00000 0.00000 0.00000 ; imides
1805 1806 1814 1815 3 30.28798 -4.81160 -25.47638 0.00000 0.00000 0.00000 ; imides
1806 1814 1815 1796 3 30.28798 -4.81160 -25.47638 0.00000 0.00000 0.00000 ; imides
1806 1814 1815 1816 3 33.20422 0.00000 -33.20422 0.00000 0.00000 0.00000 ; methylguanidinium ion
1807 1806 1814 1815 3 33.20422 0.00000 -33.20422 0.00000 0.00000 0.00000 ; methylguanidinium ion
1808 1809 12171 12170 3 1.58992 4.76976 0.00000 -6.35968 0.00000 0.00000
1808 1809 12171 12172 3 1.58992 4.76976 0.00000 -6.35968 0.00000 0.00000
1808 1809 12171 12173 3 1.58992 4.76976 0.00000 -6.35968 0.00000 0.00000
1809 12171 12170 12169 3 1.78866 3.49154 0.53555 -5.81576 0.00000 0.00000
1809 12171 12170 12174 3 -1.26775 3.02085 1.74473 -3.49782 0.00000 0.00000
1814 1806 1807 1808 3 33.20422 0.00000 -33.20422 0.00000 0.00000 0.00000 ; methylguanidinium ion
1814 1806 1807 1812 3 20.50160 0.00000 -20.50160 0.00000 0.00000 0.00000 ; imides
1815 1796 1797 1798 3 33.20422 0.00000 -33.20422 0.00000 0.00000 0.00000 ; methylguanidinium ion
1815 1796 1797 1805 3 30.28798 -4.81160 -25.47638 0.00000 0.00000 0.00000 ; imides
1817 1818 1854 1853 3 1.58992 4.76976 0.00000 -6.35968 0.00000 0.00000
1817 1818 1854 1855 3 1.58992 4.76976 0.00000 -6.35968 0.00000 0.00000
1817 1818 1854 1856 3 1.58992 4.76976 0.00000 -6.35968 0.00000 0.00000
1818 1854 1853 1852 3 1.78866 3.49154 0.53555 -5.81576 0.00000 0.00000
1818 1854 1853 1857 3 -1.26775 3.02085 1.74473 -3.49782 0.00000 0.00000
1823 1824 1832 1833 3 30.28798 -4.81160 -25.47638 0.00000 0.00000 0.00000 ; imides
1823 1843 1844 1845 3 33.20422 0.00000 -33.20422 0.00000 0.00000 0.00000 ; methylguanidinium ion
1823 1843 1844 1849 3 20.50160 0.00000 -20.50160 0.00000 0.00000 0.00000 ; imides
1824 1823 1843 1842 3 30.28798 -4.81160 -25.47638 0.00000 0.00000 0.00000 ; imides
1824 1823 1843 1844 3 33.20422 0.00000 -33.20422 0.00000 0.00000 0.00000 ; methylguanidinium ion
1824 1832 1833 1834 3 33.20422 0.00000 -33.20422 0.00000 0.00000 0.00000 ; methylguanidinium ion
1824 1832 1833 1842 3 30.28798 -4.81160 -25.47638 0.00000 0.00000 0.00000 ; imides
1825 1824 1832 1833 3 33.20422 0.00000 -33.20422 0.00000 0.00000 0.00000 ; methylguanidinium ion
1826 1827 9688 9687 3 1.58992 4.76976 0.00000 -6.35968 0.00000 0.00000
1826 1827 9688 9689 3 1.58992 4.76976 0.00000 -6.35968 0.00000 0.00000
1826 1827 9688 9690 3 1.58992 4.76976 0.00000 -6.35968 0.00000 0.00000
1827 9688 9687 9686 3 1.78866 3.49154 0.53555 -5.81576 0.00000 0.00000
1827 9688 9687 9691 3 -1.26775 3.02085 1.74473 -3.49782 0.00000 0.00000
1832 1824 1825 1826 3 33.20422 0.00000 -33.20422 0.00000 0.00000 0.00000 ; methylguanidinium ion
1832 1824 1825 1830 3 20.50160 0.00000 -20.50160 0.00000 0.00000 0.00000 ; imides
1832 1833 1842 1843 3 30.28798 -4.81160 -25.47638 0.00000 0.00000 0.00000 ; imides
1833 1842 1843 1823 3 30.28798 -4.81160 -25.47638 0.00000 0.00000 0.00000 ; imides
1833 1842 1843 1844 3 33.20422 0.00000 -33.20422 0.00000 0.00000 0.00000 ; methylguanidinium ion
1834 1833 1842 1843 3 33.20422 0.00000 -33.20422 0.00000 0.00000 0.00000 ; methylguanidinium ion
1842 1833 1834 1835 3 33.20422 0.00000 -33.20422 0.00000 0.00000 0.00000 ; methylguanidinium ion
1842 1833 1834 1840 3 20.50160 0.00000 -20.50160 0.00000 0.00000 0.00000 ; imides
1843 1823 1824 1825 3 33.20422 0.00000 -33.20422 0.00000 0.00000 0.00000 ; methylguanidinium ion
1843 1823 1824 1832 3 30.28798 -4.81160 -25.47638 0.00000 0.00000 0.00000 ; imides
1845 1846 12386 12385 3 1.58992 4.76976 0.00000 -6.35968 0.00000 0.00000
1845 1846 12386 12387 3 1.58992 4.76976 0.00000 -6.35968 0.00000 0.00000
1845 1846 12386 12388 3 1.58992 4.76976 0.00000 -6.35968 0.00000 0.00000
1846 12386 12385 12384 3 1.78866 3.49154 0.53555 -5.81576 0.00000 0.00000
1846 12386 12385 12389 3 -1.26775 3.02085 1.74473 -3.49782 0.00000 0.00000
1851 1852 1859 1860 3 30.28798 -4.81160 -25.47638 0.00000 0.00000 0.00000 ; imides
1851 1869 1870 1871 3 33.20422 0.00000 -33.20422 0.00000 0.00000 0.00000 ; methylguanidinium ion
1851 1869 1870 1875 3 20.50160 0.00000 -20.50160 0.00000 0.00000 0.00000 ; imides
1852 1851 1869 1868 3 30.28798 -4.81160 -25.47638 0.00000 0.00000 0.00000 ; imides
1852 1851 1869 1870 3 33.20422 0.00000 -33.20422 0.00000 0.00000 0.00000 ; methylguanidinium ion
1852 1859 1860 1861 3 33.20422 0.00000 -33.20422 0.00000 0.00000 0.00000 ; methylguanidinium ion
1852 1859 1860 1868 3 30.28798 -4.81160 -25.47638 0.00000 0.00000 0.00000 ; imides
1853 1852 1859 1860 3 33.20422 0.00000 -33.20422 0.00000 0.00000 0.00000 ; methylguanidinium ion
1854 1818 1817 1816 3 1.58992 4.76976 0.00000 -6.35968 0.00000 0.00000
1854 1818 1817 1819 3 1.58992 4.76976 0.00000 -6.35968 0.00000 0.00000
1854 1818 1817 1820 3 1.58992 4.76976 0.00000 -6.35968 0.00000 0.00000
1859 1852 1853 1854 3 33.20422 0.00000 -33.20422 0.00000 0.00000 0.00000 ; methylguanidinium ion
1859 1852 1853 1857 3 20.50160 0.00000 -20.50160 0.00000 0.00000 0.00000 ; imides
1859 1860 1868 1869 3 30.28798 -4.81160 -25.47638 0.00000 0.00000 0.00000 ; imides
1860 1868 1869 1851 3 30.28798 -4.81160 -25.47638 0.00000 0.00000 0.00000 ; imides
1860 1868 1869 1870 3 33.20422 0.00000 -33.20422 0.00000 0.00000 0.00000 ; methylguanidinium ion
1861 1860 1868 1869 3 33.20422 0.00000 -33.20422 0.00000 0.00000 0.00000 ; methylguanidinium ion
1862 1863 5799 5798 3 1.58992 4.76976 0.00000 -6.35968 0.00000 0.00000
1862 1863 5799 5800 3 1.58992 4.76976 0.00000 -6.35968 0.00000 0.00000
1862 1863 5799 5801 3 1.58992 4.76976 0.00000 -6.35968 0.00000 0.00000
1863 5799 5798 5797 3 1.78866 3.49154 0.53555 -5.81576 0.00000 0.00000
1863 5799 5798 5802 3 -1.26775 3.02085 1.74473 -3.49782 0.00000 0.00000
1868 1860 1861 1862 3 33.20422 0.00000 -33.20422 0.00000 0.00000 0.00000 ; methylguanidinium ion
1868 1860 1861 1866 3 20.50160 0.00000 -20.50160 0.00000 0.00000 0.00000 ; imides
1869 1851 1852 1853 3 33.20422 0.00000 -33.20422 0.00000 0.00000 0.00000 ; methylguanidinium ion
1869 1851 1852 1859 3 30.28798 -4.81160 -25.47638 0.00000 0.00000 0.00000 ; imides
1871 1872 12306 12305 3 1.58992 4.76976 0.00000 -6.35968 0.00000 0.00000
1871 1872 12306 12307 3 1.58992 4.76976 0.00000 -6.35968 0.00000 0.00000
1871 1872 12306 12308 3 1.58992 4.76976 0.00000 -6.35968 0.00000 0.00000
1872 12306 12305 12304 3 1.78866 3.49154 0.53555 -5.81576 0.00000 0.00000
1872 12306 12305 12309 3 -1.26775 3.02085 1.74473 -3.49782 0.00000 0.00000
1877 1878 1886 1887 3 30.28798 -4.81160 -25.47638 0.00000 0.00000 0.00000 ; imides
1877 1896 1897 1898 3 33.20422 0.00000 -33.20422 0.00000 0.00000 0.00000 ; methylguanidinium ion
1877 1896 1897 1902 3 20.50160 0.00000 -20.50160 0.00000 0.00000 0.00000 ; imides
1878 1877 1896 1895 3 30.28798 -4.81160 -25.47638 0.00000 0.00000 0.00000 ; imides
1878 1877 1896 1897 3 33.20422 0.00000 -33.20422 0.00000 0.00000 0.00000 ; methylguanidinium ion
1878 1886 1887 1888 3 33.20422 0.00000 -33.20422 0.00000 0.00000 0.00000 ; methylguanidinium ion
1878 1886 1887 1895 3 30.28798 -4.81160 -25.47638 0.00000 0.00000 0.00000 ; imides
1879 1878 1886 1887 3 33.20422 0.00000 -33.20422 0.00000 0.00000 0.00000 ; methylguanidinium ion
1880 1881 2110 2109 3 1.58992 4.76976 0.00000 -6.35968 0.00000 0.00000
1880 1881 2110 2111 3 1.58992 4.76976 0.00000 -6.35968 0.00000 0.00000
1880 1881 2110 2112 3 1.58992 4.76976 0.00000 -6.35968 0.00000 0.00000
1881 2110 2109 2108 3 1.78866 3.49154 0.53555 -5.81576 0.00000 0.00000
1881 2110 2109 2113 3 -1.26775 3.02085 1.74473 -3.49782 0.00000 0.00000
1886 1878 1879 1880 3 33.20422 0.00000 -33.20422 0.00000 0.00000 0.00000 ; methylguanidinium ion
1886 1878 1879 1884 3 20.50160 0.00000 -20.50160 0.00000 0.00000 0.00000 ; imides
1886 1887 1895 1896 3 30.28798 -4.81160 -25.47638 0.00000 0.00000 0.00000 ; imides
1887 1895 1896 1877 3 30.28798 -4.81160 -25.47638 0.00000 0.00000 0.00000 ; imides
1887 1895 1896 1897 3 33.20422 0.00000 -33.20422 0.00000 0.00000 0.00000 ; methylguanidinium ion
1888 1887 1895 1896 3 33.20422 0.00000 -33.20422 0.00000 0.00000 0.00000 ; methylguanidinium ion
1889 1890 12274 12273 3 1.58992 4.76976 0.00000 -6.35968 0.00000 0.00000
1889 1890 12274 12275 3 1.58992 4.76976 0.00000 -6.35968 0.00000 0.00000
1889 1890 12274 12276 3 1.58992 4.76976 0.00000 -6.35968 0.00000 0.00000
1890 12274 12273 12272 3 1.78866 3.49154 0.53555 -5.81576 0.00000 0.00000
1890 12274 12273 12277 3 -1.26775 3.02085 1.74473 -3.49782 0.00000 0.00000
1895 1887 1888 1889 3 33.20422 0.00000 -33.20422 0.00000 0.00000 0.00000 ; methylguanidinium ion
1895 1887 1888 1893 3 20.50160 0.00000 -20.50160 0.00000 0.00000 0.00000 ; imides
1896 1877 1878 1879 3 33.20422 0.00000 -33.20422 0.00000 0.00000 0.00000 ; methylguanidinium ion
1896 1877 1878 1886 3 30.28798 -4.81160 -25.47638 0.00000 0.00000 0.00000 ; imides
1898 1899 12139 12138 3 1.58992 4.76976 0.00000 -6.35968 0.00000 0.00000
1898 1899 12139 12140 3 1.58992 4.76976 0.00000 -6.35968 0.00000 0.00000
1898 1899 12139 12141 3 1.58992 4.76976 0.00000 -6.35968 0.00000 0.00000
1899 12139 12138 12137 3 1.78866 3.49154 0.53555 -5.81576 0.00000 0.00000
1899 12139 12138 12142 3 -1.26775 3.02085 1.74473 -3.49782 0.00000 0.00000
1904 1905 1912 1913 3 30.28798 -4.81160 -25.47638 0.00000 0.00000 0.00000 ; imides
1904 1922 1923 1924 3 33.20422 0.00000 -33.20422 0.00000 0.00000 0.00000 ; methylguanidinium ion
1904 1922 1923 1927 3 20.50160 0.00000 -20.50160 0.00000 0.00000 0.00000 ; imides
1905 1904 1922 1921 3 30.28798 -4.81160 -25.47638 0.00000 0.00000 0.00000 ; imides
1905 1904 1922 1923 3 33.20422 0.00000 -33.20422 0.00000 0.00000 0.00000 ; methylguanidinium ion
1905 1912 1913 1914 3 33.20422 0.00000 -33.20422 0.00000 0.00000 0.00000 ; methylguanidinium ion
1905 1912 1913 1921 3 30.28798 -4.81160 -25.47638 0.00000 0.00000 0.00000 ; imides
1906 1905 1912 1913 3 33.20422 0.00000 -33.20422 0.00000 0.00000 0.00000 ; methylguanidinium ion
1907 1567 1566 1565 3 1.58992 4.76976 0.00000 -6.35968 0.00000 0.00000
1907 1567 1566 1568 3 1.58992 4.76976 0.00000 -6.35968 0.00000 0.00000
1907 1567 1566 1569 3 1.58992 4.76976 0.00000 -6.35968 0.00000 0.00000
1912 1905 1906 1907 3 33.20422 0.00000 -33.20422 0.00000 0.00000 0.00000 ; methylguanidinium ion
1912 1905 1906 1910 3 20.50160 0.00000 -20.50160 0.00000 0.00000 0.00000 ; imides
1912 1913 1921 1922 3 30.28798 -4.81160 -25.47638 0.00000 0.00000 0.00000 ; imides
1913 1921 1922 1904 3 30.28798 -4.81160 -25.47638 0.00000 0.00000 0.00000 ; imides
1913 1921 1922 1923 3 33.20422 0.00000 -33.20422 0.00000 0.00000 0.00000 ; methylguanidinium ion
1914 1913 1921 1922 3 33.20422 0.00000 -33.20422 0.00000 0.00000 0.00000 ; methylguanidinium ion
1915 1916 4358 4357 3 1.58992 4.76976 0.00000 -6.35968 0.00000 0.00000
1915 1916 4358 4359 3 1.58992 4.76976 0.00000 -6.35968 0.00000 0.00000
1915 1916 4358 4360 3 1.58992 4.76976 0.00000 -6.35968 0.00000 0.00000
1916 4358 4357 4356 3 1.78866 3.49154 0.53555 -5.81576 0.00000 0.00000
1916 4358 4357 4361 3 -1.26775 3.02085 1.74473 -3.49782 0.00000 0.00000
1921 1913 1914 1915 3 33.20422 0.00000 -33.20422 0.00000 0.00000 0.00000 ; methylguanidinium ion
1921 1913 1914 1919 3 20.50160 0.00000 -20.50160 0.00000 0.00000 0.00000 ; imides
1922 1904 1905 1906 3 33.20422 0.00000 -33.20422 0.00000 0.00000 0.00000 ; methylguanidinium ion
1922 1904 1905 1912 3 30.28798 -4.81160 -25.47638 0.00000 0.00000 0.00000 ; imides
1924 1181 1180 1179 3 1.58992 4.76976 0.00000 -6.35968 0.00000 0.00000
1924 1181 1180 1182 3 1.58992 4.76976 0.00000 -6.35968 0.00000 0.00000
1924 1181 1180 1183 3 1.58992 4.76976 0.00000 -6.35968 0.00000 0.00000
1929 1930 1938 1939 3 30.28798 -4.81160 -25.47638 0.00000 0.00000 0.00000 ; imides
1929 1948 1949 1950 3 33.20422 0.00000 -33.20422 0.00000 0.00000 0.00000 ; methylguanidinium ion
1929 1948 1949 1954 3 20.50160 0.00000 -20.50160 0.00000 0.00000 0.00000 ; imides
1930 1929 1948 1947 3 30.28798 -4.81160 -25.47638 0.00000 0.00000 0.00000 ; imides
1930 1929 1948 1949 3 33.20422 0.00000 -33.20422 0.00000 0.00000 0.00000 ; methylguanidinium ion
1930 1938 1939 1940 3 33.20422 0.00000 -33.20422 0.00000 0.00000 0.00000 ; methylguanidinium ion
1930 1938 1939 1947 3 30.28798 -4.81160 -25.47638 0.00000 0.00000 0.00000 ; imides
1931 1930 1938 1939 3 33.20422 0.00000 -33.20422 0.00000 0.00000 0.00000 ; methylguanidinium ion
1932 1933 8523 8522 3 1.58992 4.76976 0.00000 -6.35968 0.00000 0.00000
1932 1933 8523 8524 3 1.58992 4.76976 0.00000 -6.35968 0.00000 0.00000
1932 1933 8523 8525 3 1.58992 4.76976 0.00000 -6.35968 0.00000 0.00000
1933 8523 8522 8521 3 1.78866 3.49154 0.53555 -5.81576 0.00000 0.00000
1933 8523 8522 8526 3 -1.26775 3.02085 1.74473 -3.49782 0.00000 0.00000
1938 1930 1931 1932 3 33.20422 0.00000 -33.20422 0.00000 0.00000 0.00000 ; methylguanidinium ion
1938 1930 1931 1936 3 20.50160 0.00000 -20.50160 0.00000 0.00000 0.00000 ; imides
1938 1939 1947 1948 3 30.28798 -4.81160 -25.47638 0.00000 0.00000 0.00000 ; imides
1939 1947 1948 1929 3 30.28798 -4.81160 -25.47638 0.00000 0.00000 0.00000 ; imides
1939 1947 1948 1949 3 33.20422 0.00000 -33.20422 0.00000 0.00000 0.00000 ; methylguanidinium ion
1940 1939 1947 1948 3 33.20422 0.00000 -33.20422 0.00000 0.00000 0.00000 ; methylguanidinium ion
1941 1942 4834 4833 3 1.58992 4.76976 0.00000 -6.35968 0.00000 0.00000
1941 1942 4834 4835 3 1.58992 4.76976 0.00000 -6.35968 0.00000 0.00000
1941 1942 4834 4836 3 1.58992 4.76976 0.00000 -6.35968 0.00000 0.00000
1942 4834 4833 4832 3 1.78866 3.49154 0.53555 -5.81576 0.00000 0.00000
1942 4834 4833 4837 3 -1.26775 3.02085 1.74473 -3.49782 0.00000 0.00000
1947 1939 1940 1941 3 33.20422 0.00000 -33.20422 0.00000 0.00000 0.00000 ; methylguanidinium ion
1947 1939 1940 1945 3 20.50160 0.00000 -20.50160 0.00000 0.00000 0.00000 ; imides
1948 1929 1930 1931 3 33.20422 0.00000 -33.20422 0.00000 0.00000 0.00000 ; methylguanidinium ion
1948 1929 1930 1938 3 30.28798 -4.81160 -25.47638 0.00000 0.00000 0.00000 ; imides
1950 1951 2854 2853 3 1.58992 4.76976 0.00000 -6.35968 0.00000 0.00000
1950 1951 2854 2855 3 1.58992 4.76976 0.00000 -6.35968 0.00000 0.00000
1950 1951 2854 2856 3 1.58992 4.76976 0.00000 -6.35968 0.00000 0.00000
1951 2854 2853 2852 3 1.78866 3.49154 0.53555 -5.81576 0.00000 0.00000
1951 2854 2853 2857 3 -1.26775 3.02085 1.74473 -3.49782 0.00000 0.00000
1956 1957 1965 1966 3 30.28798 -4.81160 -25.47638 0.00000 0.00000 0.00000 ; imides
1956 1975 1976 1977 3 33.20422 0.00000 -33.20422 0.00000 0.00000 0.00000 ; methylguanidinium ion
1956 1975 1976 1981 3 20.50160 0.00000 -20.50160 0.00000 0.00000 0.00000 ; imides
1957 1956 1975 1974 3 30.28798 -4.81160 -25.47638 0.00000 0.00000 0.00000 ; imides
1957 1956 1975 1976 3 33.20422 0.00000 -33.20422 0.00000 0.00000 0.00000 ; methylguanidinium ion
1957 1965 1966 1967 3 33.20422 0.00000 -33.20422 0.00000 0.00000 0.00000 ; methylguanidinium ion
1957 1965 1966 1974 3 30.28798 -4.81160 -25.47638 0.00000 0.00000 0.00000 ; imides
1958 1957 1965 1966 3 33.20422 0.00000 -33.20422 0.00000 0.00000 0.00000 ; methylguanidinium ion
1959 1960 5423 5422 3 1.58992 4.76976 0.00000 -6.35968 0.00000 0.00000
1959 1960 5423 5424 3 1.58992 4.76976 0.00000 -6.35968 0.00000 0.00000
1959 1960 5423 5425 3 1.58992 4.76976 0.00000 -6.35968 0.00000 0.00000
1960 5423 5422 5421 3 1.78866 3.49154 0.53555 -5.81576 0.00000 0.00000
1960 5423 5422 5426 3 -1.26775 3.02085 1.74473 -3.49782 0.00000 0.00000
1965 1957 1958 1959 3 33.20422 0.00000 -33.20422 0.00000 0.00000 0.00000 ; methylguanidinium ion
1965 1957 1958 1963 3 20.50160 0.00000 -20.50160 0.00000 0.00000 0.00000 ; imides
1965 1966 1974 1975 3 30.28798 -4.81160 -25.47638 0.00000 0.00000 0.00000 ; imides
1966 1974 1975 1956 3 30.28798 -4.81160 -25.47638 0.00000 0.00000 0.00000 ; imides
1966 1974 1975 1976 3 33.20422 0.00000 -33.20422 0.00000 0.00000 0.00000 ; methylguanidinium ion
1967 1966 1974 1975 3 33.20422 0.00000 -33.20422 0.00000 0.00000 0.00000 ; methylguanidinium ion
1968 1969 9024 9023 3 1.58992 4.76976 0.00000 -6.35968 0.00000 0.00000
1968 1969 9024 9025 3 1.58992 4.76976 0.00000 -6.35968 0.00000 0.00000
1968 1969 9024 9026 3 1.58992 4.76976 0.00000 -6.35968 0.00000 0.00000
1969 9024 9023 9022 3 1.78866 3.49154 0.53555 -5.81576 0.00000 0.00000
1969 9024 9023 9027 3 -1.26775 3.02085 1.74473 -3.49782 0.00000 0.00000
1974 1966 1967 1968 3 33.20422 0.00000 -33.20422 0.00000 0.00000 0.00000 ; methylguanidinium ion
1974 1966 1967 1972 3 20.50160 0.00000 -20.50160 0.00000 0.00000 0.00000 ; imides
1975 1956 1957 1958 3 33.20422 0.00000 -33.20422 0.00000 0.00000 0.00000 ; methylguanidinium ion
1975 1956 1957 1965 3 30.28798 -4.81160 -25.47638 0.00000 0.00000 0.00000 ; imides
1977 1978 9418 9417 3 1.58992 4.76976 0.00000 -6.35968 0.00000 0.00000
1977 1978 9418 9419 3 1.58992 4.76976 0.00000 -6.35968 0.00000 0.00000
1977 1978 9418 9420 3 1.58992 4.76976 0.00000 -6.35968 0.00000 0.00000
1978 9418 9417 9416 3 1.78866 3.49154 0.53555 -5.81576 0.00000 0.00000
1978 9418 9417 9421 3 -1.26775 3.02085 1.74473 -3.49782 0.00000 0.00000
1983 1984 1992 1993 3 30.28798 -4.81160 -25.47638 0.00000 0.00000 0.00000 ; imides
1983 2002 2003 2004 3 33.20422 0.00000 -33.20422 0.00000 0.00000 0.00000 ; methylguanidinium ion
1983 2002 2003 2008 3 20.50160 0.00000 -20.50160 0.00000 0.00000 0.00000 ; imides
1984 1983 2002 2001 3 30.28798 -4.81160 -25.47638 0.00000 0.00000 0.00000 ; imides
1984 1983 2002 2003 3 33.20422 0.00000 -33.20422 0.00000 0.00000 0.00000 ; methylguanidinium ion
1984 1992 1993 1994 3 33.20422 0.00000 -33.20422 0.00000 0.00000 0.00000 ; methylguanidinium ion
1984 1992 1993 2001 3 30.28798 -4.81160 -25.47638 0.00000 0.00000 0.00000 ; imides
1985 1984 1992 1993 3 33.20422 0.00000 -33.20422 0.00000 0.00000 0.00000 ; methylguanidinium ion
1986 1987 3984 3983 3 1.58992 4.76976 0.00000 -6.35968 0.00000 0.00000
1986 1987 3984 3985 3 1.58992 4.76976 0.00000 -6.35968 0.00000 0.00000
1986 1987 3984 3986 3 1.58992 4.76976 0.00000 -6.35968 0.00000 0.00000
1987 3984 3983 3982 3 1.78866 3.49154 0.53555 -5.81576 0.00000 0.00000
1987 3984 3983 3987 3 -1.26775 3.02085 1.74473 -3.49782 0.00000 0.00000
1992 1984 1985 1986 3 33.20422 0.00000 -33.20422 0.00000 0.00000 0.00000 ; methylguanidinium ion
1992 1984 1985 1990 3 20.50160 0.00000 -20.50160 0.00000 0.00000 0.00000 ; imides
1992 1993 2001 2002 3 30.28798 -4.81160 -25.47638 0.00000 0.00000 0.00000 ; imides
1993 2001 2002 1983 3 30.28798 -4.81160 -25.47638 0.00000 0.00000 0.00000 ; imides
1993 2001 2002 2003 3 33.20422 0.00000 -33.20422 0.00000 0.00000 0.00000 ; methylguanidinium ion
1994 1993 2001 2002 3 33.20422 0.00000 -33.20422 0.00000 0.00000 0.00000 ; methylguanidinium ion
1995 1996 7263 7262 3 1.58992 4.76976 0.00000 -6.35968 0.00000 0.00000
1995 1996 7263 7264 3 1.58992 4.76976 0.00000 -6.35968 0.00000 0.00000
1995 1996 7263 7265 3 1.58992 4.76976 0.00000 -6.35968 0.00000 0.00000
1996 7263 7262 7261 3 1.78866 3.49154 0.53555 -5.81576 0.00000 0.00000
1996 7263 7262 7266 3 -1.26775 3.02085 1.74473 -3.49782 0.00000 0.00000
2001 1993 1994 1995 3 33.20422 0.00000 -33.20422 0.00000 0.00000 0.00000 ; methylguanidinium ion
2001 1993 1994 1999 3 20.50160 0.00000 -20.50160 0.00000 0.00000 0.00000 ; imides
2002 1983 1984 1985 3 33.20422 0.00000 -33.20422 0.00000 0.00000 0.00000 ; methylguanidinium ion
2002 1983 1984 1992 3 30.28798 -4.81160 -25.47638 0.00000 0.00000 0.00000 ; imides
2004 2005 2904 2903 3 1.58992 4.76976 0.00000 -6.35968 0.00000 0.00000
2004 2005 2904 2905 3 1.58992 4.76976 0.00000 -6.35968 0.00000 0.00000
2004 2005 2904 2906 3 1.58992 4.76976 0.00000 -6.35968 0.00000 0.00000
2005 2904 2903 2902 3 1.78866 3.49154 0.53555 -5.81576 0.00000 0.00000
2005 2904 2903 2907 3 -1.26775 3.02085 1.74473 -3.49782 0.00000 0.00000
2010 2011 2019 2020 3 30.28798 -4.81160 -25.47638 0.00000 0.00000 0.00000 ; imides
2010 2029 2030 2031 3 33.20422 0.00000 -33.20422 0.00000 0.00000 0.00000 ; methylguanidinium ion
2010 2029 2030 2035 3 20.50160 0.00000 -20.50160 0.00000 0.00000 0.00000 ; imides
2011 2010 2029 2028 3 30.28798 -4.81160 -25.47638 0.00000 0.00000 0.00000 ; imides
2011 2010 2029 2030 3 33.20422 0.00000 -33.20422 0.00000 0.00000 0.00000 ; methylguanidinium ion
2011 2019 2020 2021 3 33.20422 0.00000 -33.20422 0.00000 0.00000 0.00000 ; methylguanidinium ion
2011 2019 2020 2028 3 30.28798 -4.81160 -25.47638 0.00000 0.00000 0.00000 ; imides
2012 2011 2019 2020 3 33.20422 0.00000 -33.20422 0.00000 0.00000 0.00000 ; methylguanidinium ion
2013 2014 10417 10416 3 1.58992 4.76976 0.00000 -6.35968 0.00000 0.00000
2013 2014 10417 10418 3 1.58992 4.76976 0.00000 -6.35968 0.00000 0.00000
2013 2014 10417 10419 3 1.58992 4.76976 0.00000 -6.35968 0.00000 0.00000
2014 10417 10416 10415 3 1.78866 3.49154 0.53555 -5.81576 0.00000 0.00000
2014 10417 10416 10420 3 -1.26775 3.02085 1.74473 -3.49782 0.00000 0.00000
2019 2011 2012 2013 3 33.20422 0.00000 -33.20422 0.00000 0.00000 0.00000 ; methylguanidinium ion
2019 2011 2012 2017 3 20.50160 0.00000 -20.50160 0.00000 0.00000 0.00000 ; imides
2019 2020 2028 2029 3 30.28798 -4.81160 -25.47638 0.00000 0.00000 0.00000 ; imides
2020 2028 2029 2010 3 30.28798 -4.81160 -25.47638 0.00000 0.00000 0.00000 ; imides
2020 2028 2029 2030 3 33.20422 0.00000 -33.20422 0.00000 0.00000 0.00000 ; methylguanidinium ion
2021 2020 2028 2029 3 33.20422 0.00000 -33.20422 0.00000 0.00000 0.00000 ; methylguanidinium ion
2022 2023 7661 7660 3 1.58992 4.76976 0.00000 -6.35968 0.00000 0.00000
2022 2023 7661 7662 3 1.58992 4.76976 0.00000 -6.35968 0.00000 0.00000
2022 2023 7661 7663 3 1.58992 4.76976 0.00000 -6.35968 0.00000 0.00000
2023 7661 7660 7659 3 1.78866 3.49154 0.53555 -5.81576 0.00000 0.00000
2023 7661 7660 7664 3 -1.26775 3.02085 1.74473 -3.49782 0.00000 0.00000
2028 2020 2021 2022 3 33.20422 0.00000 -33.20422 0.00000 0.00000 0.00000 ; methylguanidinium ion
2028 2020 2021 2026 3 20.50160 0.00000 -20.50160 0.00000 0.00000 0.00000 ; imides
2029 2010 2011 2012 3 33.20422 0.00000 -33.20422 0.00000 0.00000 0.00000 ; methylguanidinium ion
2029 2010 2011 2019 3 30.28798 -4.81160 -25.47638 0.00000 0.00000 0.00000 ; imides
2031 2032 6030 6029 3 1.58992 4.76976 0.00000 -6.35968 0.00000 0.00000
2031 2032 6030 6031 3 1.58992 4.76976 0.00000 -6.35968 0.00000 0.00000
2031 2032 6030 6032 3 1.58992 4.76976 0.00000 -6.35968 0.00000 0.00000
2032 6030 6029 6028 3 1.78866 3.49154 0.53555 -5.81576 0.00000 0.00000
2032 6030 6029 6033 3 -1.26775 3.02085 1.74473 -3.49782 0.00000 0.00000
2037 2038 2046 2047 3 30.28798 -4.81160 -25.47638 0.00000 0.00000 0.00000 ; imides
2037 2056 2057 2058 3 33.20422 0.00000 -33.20422 0.00000 0.00000 0.00000 ; methylguanidinium ion
2037 2056 2057 2062 3 20.50160 0.00000 -20.50160 0.00000 0.00000 0.00000 ; imides
2038 2037 2056 2055 3 30.28798 -4.81160 -25.47638 0.00000 0.00000 0.00000 ; imides
2038 2037 2056 2057 3 33.20422 0.00000 -33.20422 0.00000 0.00000 0.00000 ; methylguanidinium ion
2038 2046 2047 2048 3 33.20422 0.00000 -33.20422 0.00000 0.00000 0.00000 ; methylguanidinium ion
2038 2046 2047 2055 3 30.28798 -4.81160 -25.47638 0.00000 0.00000 0.00000 ; imides
2039 2038 2046 2047 3 33.20422 0.00000 -33.20422 0.00000 0.00000 0.00000 ; methylguanidinium ion
2040 2041 7678 7677 3 1.58992 4.76976 0.00000 -6.35968 0.00000 0.00000
2040 2041 7678 7679 3 1.58992 4.76976 0.00000 -6.35968 0.00000 0.00000
2040 2041 7678 7680 3 1.58992 4.76976 0.00000 -6.35968 0.00000 0.00000
2041 7678 7677 7676 3 1.78866 3.49154 0.53555 -5.81576 0.00000 0.00000
2041 7678 7677 7681 3 -1.26775 3.02085 1.74473 -3.49782 0.00000 0.00000
2046 2038 2039 2040 3 33.20422 0.00000 -33.20422 0.00000 0.00000 0.00000 ; methylguanidinium ion
2046 2038 2039 2044 3 20.50160 0.00000 -20.50160 0.00000 0.00000 0.00000 ; imides
2046 2047 2055 2056 3 30.28798 -4.81160 -25.47638 0.00000 0.00000 0.00000 ; imides
2047 2055 2056 2037 3 30.28798 -4.81160 -25.47638 0.00000 0.00000 0.00000 ; imides
2047 2055 2056 2057 3 33.20422 0.00000 -33.20422 0.00000 0.00000 0.00000 ; methylguanidinium ion
2048 2047 2055 2056 3 33.20422 0.00000 -33.20422 0.00000 0.00000 0.00000 ; methylguanidinium ion
2049 2050 3867 3866 3 1.58992 4.76976 0.00000 -6.35968 0.00000 0.00000
2049 2050 3867 3868 3 1.58992 4.76976 0.00000 -6.35968 0.00000 0.00000
2049 2050 3867 3869 3 1.58992 4.76976 0.00000 -6.35968 0.00000 0.00000
2050 3867 3866 3865 3 1.78866 3.49154 0.53555 -5.81576 0.00000 0.00000
2050 3867 3866 3870 3 -1.26775 3.02085 1.74473 -3.49782 0.00000 0.00000
2055 2047 2048 2049 3 33.20422 0.00000 -33.20422 0.00000 0.00000 0.00000 ; methylguanidinium ion
2055 2047 2048 2053 3 20.50160 0.00000 -20.50160 0.00000 0.00000 0.00000 ; imides
2056 2037 2038 2039 3 33.20422 0.00000 -33.20422 0.00000 0.00000 0.00000 ; methylguanidinium ion
2056 2037 2038 2046 3 30.28798 -4.81160 -25.47638 0.00000 0.00000 0.00000 ; imides
2058 2059 12099 12098 3 1.58992 4.76976 0.00000 -6.35968 0.00000 0.00000
2058 2059 12099 12100 3 1.58992 4.76976 0.00000 -6.35968 0.00000 0.00000
2058 2059 12099 12101 3 1.58992 4.76976 0.00000 -6.35968 0.00000 0.00000
2059 12099 12098 12097 3 1.78866 3.49154 0.53555 -5.81576 0.00000 0.00000
2059 12099 12098 12102 3 -1.26775 3.02085 1.74473 -3.49782 0.00000 0.00000
2064 2065 2073 2074 3 30.28798 -4.81160 -25.47638 0.00000 0.00000 0.00000 ; imides
2064 2083 2084 2085 3 33.20422 0.00000 -33.20422 0.00000 0.00000 0.00000 ; methylguanidinium ion
2064 2083 2084 2088 3 20.50160 0.00000 -20.50160 0.00000 0.00000 0.00000 ; imides
2065 2064 2083 2082 3 30.28798 -4.81160 -25.47638 0.00000 0.00000 0.00000 ; imides
2065 2064 2083 2084 3 33.20422 0.00000 -33.20422 0.00000 0.00000 0.00000 ; methylguanidinium ion
2065 2073 2074 2075 3 33.20422 0.00000 -33.20422 0.00000 0.00000 0.00000 ; methylguanidinium ion
2065 2073 2074 2082 3 30.28798 -4.81160 -25.47638 0.00000 0.00000 0.00000 ; imides
2066 2065 2073 2074 3 33.20422 0.00000 -33.20422 0.00000 0.00000 0.00000 ; methylguanidinium ion
2067 2068 10143 10142 3 1.58992 4.76976 0.00000 -6.35968 0.00000 0.00000
2067 2068 10143 10144 3 1.58992 4.76976 0.00000 -6.35968 0.00000 0.00000
2067 2068 10143 10145 3 1.58992 4.76976 0.00000 -6.35968 0.00000 0.00000
2068 10143 10142 10141 3 1.78866 3.49154 0.53555 -5.81576 0.00000 0.00000
2068 10143 10142 10146 3 -1.26775 3.02085 1.74473 -3.49782 0.00000 0.00000
2073 2065 2066 2067 3 33.20422 0.00000 -33.20422 0.00000 0.00000 0.00000 ; methylguanidinium ion
2073 2065 2066 2071 3 20.50160 0.00000 -20.50160 0.00000 0.00000 0.00000 ; imides
2073 2074 2082 2083 3 30.28798 -4.81160 -25.47638 0.00000 0.00000 0.00000 ; imides
2074 2082 2083 2064 3 30.28798 -4.81160 -25.47638 0.00000 0.00000 0.00000 ; imides
2074 2082 2083 2084 3 33.20422 0.00000 -33.20422 0.00000 0.00000 0.00000 ; methylguanidinium ion
2075 2074 2082 2083 3 33.20422 0.00000 -33.20422 0.00000 0.00000 0.00000 ; methylguanidinium ion
2076 2077 6781 6780 3 1.58992 4.76976 0.00000 -6.35968 0.00000 0.00000
2076 2077 6781 6782 3 1.58992 4.76976 0.00000 -6.35968 0.00000 0.00000
2076 2077 6781 6783 3 1.58992 4.76976 0.00000 -6.35968 0.00000 0.00000
2077 6781 6780 6779 3 1.78866 3.49154 0.53555 -5.81576 0.00000 0.00000
2077 6781 6780 6784 3 -1.26775 3.02085 1.74473 -3.49782 0.00000 0.00000
2082 2074 2075 2076 3 33.20422 0.00000 -33.20422 0.00000 0.00000 0.00000 ; methylguanidinium ion
2082 2074 2075 2080 3 20.50160 0.00000 -20.50160 0.00000 0.00000 0.00000 ; imides
2083 2064 2065 2066 3 33.20422 0.00000 -33.20422 0.00000 0.00000 0.00000 ; methylguanidinium ion
2083 2064 2065 2073 3 30.28798 -4.81160 -25.47638 0.00000 0.00000 0.00000 ; imides
2085 1718 1717 1716 3 1.58992 4.76976 0.00000 -6.35968 0.00000 0.00000
2085 1718 1717 1719 3 1.58992 4.76976 0.00000 -6.35968 0.00000 0.00000
2085 1718 1717 1720 3 1.58992 4.76976 0.00000 -6.35968 0.00000 0.00000
2090 2091 2099 2100 3 30.28798 -4.81160 -25.47638 0.00000 0.00000 0.00000 ; imides
2090 2108 2109 2110 3 33.20422 0.00000 -33.20422 0.00000 0.00000 0.00000 ; methylguanidinium ion
2090 2108 2109 2113 3 20.50160 0.00000 -20.50160 0.00000 0.00000 0.00000 ; imides
2091 2090 2108 2107 3 30.28798 -4.81160 -25.47638 0.00000 0.00000 0.00000 ; imides
2091 2090 2108 2109 3 33.20422 0.00000 -33.20422 0.00000 0.00000 0.00000 ; methylguanidinium ion
2091 2099 2100 2101 3 33.20422 0.00000 -33.20422 0.00000 0.00000 0.00000 ; methylguanidinium ion
2091 2099 2100 2107 3 30.28798 -4.81160 -25.47638 0.00000 0.00000 0.00000 ; imides
2092 2091 2099 2100 3 33.20422 0.00000 -33.20422 0.00000 0.00000 0.00000 ; methylguanidinium ion
2093 2094 5346 5345 3 1.58992 4.76976 0.00000 -6.35968 0.00000 0.00000
2093 2094 5346 5347 3 1.58992 4.76976 0.00000 -6.35968 0.00000 0.00000
2093 2094 5346 5348 3 1.58992 4.76976 0.00000 -6.35968 0.00000 0.00000
2094 5346 5345 5344 3 1.78866 3.49154 0.53555 -5.81576 0.00000 0.00000
2094 5346 5345 5349 3 -1.26775 3.02085 1.74473 -3.49782 0.00000 0.00000
2099 2091 2092 2093 3 33.20422 0.00000 -33.20422 0.00000 0.00000 0.00000 ; methylguanidinium ion
2099 2091 2092 2097 3 20.50160 0.00000 -20.50160 0.00000 0.00000 0.00000 ; imides
2099 2100 2107 2108 3 30.28798 -4.81160 -25.47638 0.00000 0.00000 0.00000 ; imides
2100 2107 2108 2090 3 30.28798 -4.81160 -25.47638 0.00000 0.00000 0.00000 ; imides
2100 2107 2108 2109 3 33.20422 0.00000 -33.20422 0.00000 0.00000 0.00000 ; methylguanidinium ion
2101 2100 2107 2108 3 33.20422 0.00000 -33.20422 0.00000 0.00000 0.00000 ; methylguanidinium ion
2102 290 289 288 3 1.58992 4.76976 0.00000 -6.35968 0.00000 0.00000
2102 290 289 291 3 1.58992 4.76976 0.00000 -6.35968 0.00000 0.00000
2102 290 289 292 3 1.58992 4.76976 0.00000 -6.35968 0.00000 0.00000
2107 2100 2101 2102 3 33.20422 0.00000 -33.20422 0.00000 0.00000 0.00000 ; methylguanidinium ion
2107 2100 2101 2105 3 20.50160 0.00000 -20.50160 0.00000 0.00000 0.00000 ; imides
2108 2090 2091 2092 3 33.20422 0.00000 -33.20422 0.00000 0.00000 0.00000 ; methylguanidinium ion
2108 2090 2091 2099 3 30.28798 -4.81160 -25.47638 0.00000 0.00000 0.00000 ; imides
2110 1881 1880 1879 3 1.58992 4.76976 0.00000 -6.35968 0.00000 0.00000
2110 1881 1880 1882 3 1.58992 4.76976 0.00000 -6.35968 0.00000 0.00000
2110 1881 1880 1883 3 1.58992 4.76976 0.00000 -6.35968 0.00000 0.00000
2115 2116 2124 2125 3 30.28798 -4.81160 -25.47638 0.00000 0.00000 0.00000 ; imides
2115 2134 2135 2136 3 33.20422 0.00000 -33.20422 0.00000 0.00000 0.00000 ; methylguanidinium ion
2115 2134 2135 2140 3 20.50160 0.00000 -20.50160 0.00000 0.00000 0.00000 ; imides
2116 2115 2134 2133 3 30.28798 -4.81160 -25.47638 0.00000 0.00000 0.00000 ; imides
2116 2115 2134 2135 3 33.20422 0.00000 -33.20422 0.00000 0.00000 0.00000 ; methylguanidinium ion
2116 2124 2125 2126 3 33.20422 0.00000 -33.20422 0.00000 0.00000 0.00000 ; methylguanidinium ion
2116 2124 2125 2133 3 30.28798 -4.81160 -25.47638 0.00000 0.00000 0.00000 ; imides
2117 2116 2124 2125 3 33.20422 0.00000 -33.20422 0.00000 0.00000 0.00000 ; methylguanidinium ion
2118 2119 9475 9474 3 1.58992 4.76976 0.00000 -6.35968 0.00000 0.00000
2118 2119 9475 9476 3 1.58992 4.76976 0.00000 -6.35968 0.00000 0.00000
2118 2119 9475 9477 3 1.58992 4.76976 0.00000 -6.35968 0.00000 0.00000
2119 9475 9474 9473 3 1.78866 3.49154 0.53555 -5.81576 0.00000 0.00000
2119 9475 9474 9478 3 -1.26775 3.02085 1.74473 -3.49782 0.00000 0.00000
2124 2116 2117 2118 3 33.20422 0.00000 -33.20422 0.00000 0.00000 0.00000 ; methylguanidinium ion
2124 2116 2117 2122 3 20.50160 0.00000 -20.50160 0.00000 0.00000 0.00000 ; imides
2124 2125 2133 2134 3 30.28798 -4.81160 -25.47638 0.00000 0.00000 0.00000 ; imides
2125 2133 2134 2115 3 30.28798 -4.81160 -25.47638 0.00000 0.00000 0.00000 ; imides
2125 2133 2134 2135 3 33.20422 0.00000 -33.20422 0.00000 0.00000 0.00000 ; methylguanidinium ion
2126 2125 2133 2134 3 33.20422 0.00000 -33.20422 0.00000 0.00000 0.00000 ; methylguanidinium ion
2127 2128 10325 10324 3 1.58992 4.76976 0.00000 -6.35968 0.00000 0.00000
2127 2128 10325 10326 3 1.58992 4.76976 0.00000 -6.35968 0.00000 0.00000
2127 2128 10325 10327 3 1.58992 4.76976 0.00000 -6.35968 0.00000 0.00000
2128 10325 10324 10323 3 1.78866 3.49154 0.53555 -5.81576 0.00000 0.00000
2128 10325 10324 10328 3 -1.26775 3.02085 1.74473 -3.49782 0.00000 0.00000
2133 2125 2126 2127 3 33.20422 0.00000 -33.20422 0.00000 0.00000 0.00000 ; methylguanidinium ion
2133 2125 2126 2131 3 20.50160 0.00000 -20.50160 0.00000 0.00000 0.00000 ; imides
2134 2115 2116 2117 3 33.20422 0.00000 -33.20422 0.00000 0.00000 0.00000 ; methylguanidinium ion
2134 2115 2116 2124 3 30.28798 -4.81160 -25.47638 0.00000 0.00000 0.00000 ; imides
2136 2137 8210 8209 3 1.58992 4.76976 0.00000 -6.35968 0.00000 0.00000
2136 2137 8210 8211 3 1.58992 4.76976 0.00000 -6.35968 0.00000 0.00000
2136 2137 8210 8212 3 1.58992 4.76976 0.00000 -6.35968 0.00000 0.00000
2137 8210 8209 8208 3 1.78866 3.49154 0.53555 -5.81576 0.00000 0.00000
2137 8210 8209 8213 3 -1.26775 3.02085 1.74473 -3.49782 0.00000 0.00000
2142 2143 2151 2152 3 30.28798 -4.81160 -25.47638 0.00000 0.00000 0.00000 ; imides
2142 2161 2162 2163 3 33.20422 0.00000 -33.20422 0.00000 0.00000 0.00000 ; methylguanidinium ion
2142 2161 2162 2167 3 20.50160 0.00000 -20.50160 0.00000 0.00000 0.00000 ; imides
2143 2142 2161 2160 3 30.28798 -4.81160 -25.47638 0.00000 0.00000 0.00000 ; imides
2143 2142 2161 2162 3 33.20422 0.00000 -33.20422 0.00000 0.00000 0.00000 ; methylguanidinium ion
2143 2151 2152 2153 3 33.20422 0.00000 -33.20422 0.00000 0.00000 0.00000 ; methylguanidinium ion
2143 2151 2152 2160 3 30.28798 -4.81160 -25.47638 0.00000 0.00000 0.00000 ; imides
2144 2143 2151 2152 3 33.20422 0.00000 -33.20422 0.00000 0.00000 0.00000 ; methylguanidinium ion
2145 2146 6677 6676 3 1.58992 4.76976 0.00000 -6.35968 0.00000 0.00000
2145 2146 6677 6678 3 1.58992 4.76976 0.00000 -6.35968 0.00000 0.00000
2145 2146 6677 6679 3 1.58992 4.76976 0.00000 -6.35968 0.00000 0.00000
2146 6677 6676 6675 3 1.78866 3.49154 0.53555 -5.81576 0.00000 0.00000
2146 6677 6676 6680 3 -1.26775 3.02085 1.74473 -3.49782 0.00000 0.00000
2151 2143 2144 2145 3 33.20422 0.00000 -33.20422 0.00000 0.00000 0.00000 ; methylguanidinium ion
2151 2143 2144 2149 3 20.50160 0.00000 -20.50160 0.00000 0.00000 0.00000 ; imides
2151 2152 2160 2161 3 30.28798 -4.81160 -25.47638 0.00000 0.00000 0.00000 ; imides
2152 2160 2161 2142 3 30.28798 -4.81160 -25.47638 0.00000 0.00000 0.00000 ; imides
2152 2160 2161 2162 3 33.20422 0.00000 -33.20422 0.00000 0.00000 0.00000 ; methylguanidinium ion
2153 2152 2160 2161 3 33.20422 0.00000 -33.20422 0.00000 0.00000 0.00000 ; methylguanidinium ion
2154 2155 10028 10027 3 1.58992 4.76976 0.00000 -6.35968 0.00000 0.00000
2154 2155 10028 10029 3 1.58992 4.76976 0.00000 -6.35968 0.00000 0.00000
2154 2155 10028 10030 3 1.58992 4.76976 0.00000 -6.35968 0.00000 0.00000
2155 10028 10027 10026 3 1.78866 3.49154 0.53555 -5.81576 0.00000 0.00000
2155 10028 10027 10031 3 -1.26775 3.02085 1.74473 -3.49782 0.00000 0.00000
2160 2152 2153 2154 3 33.20422 0.00000 -33.20422 0.00000 0.00000 0.00000 ; methylguanidinium ion
2160 2152 2153 2158 3 20.50160 0.00000 -20.50160 0.00000 0.00000 0.00000 ; imides
2161 2142 2143 2144 3 33.20422 0.00000 -33.20422 0.00000 0.00000 0.00000 ; methylguanidinium ion
2161 2142 2143 2151 3 30.28798 -4.81160 -25.47638 0.00000 0.00000 0.00000 ; imides
2163 2164 4920 4919 3 1.58992 4.76976 0.00000 -6.35968 0.00000 0.00000
2163 2164 4920 4921 3 1.58992 4.76976 0.00000 -6.35968 0.00000 0.00000
2163 2164 4920 4922 3 1.58992 4.76976 0.00000 -6.35968 0.00000 0.00000
2164 4920 4919 4918 3 1.78866 3.49154 0.53555 -5.81576 0.00000 0.00000
2164 4920 4919 4923 3 -1.26775 3.02085 1.74473 -3.49782 0.00000 0.00000
2169 2170 2178 2179 3 30.28798 -4.81160 -25.47638 0.00000 0.00000 0.00000 ; imides
2169 2189 2190 2191 3 33.20422 0.00000 -33.20422 0.00000 0.00000 0.00000 ; methylguanidinium ion
2169 2189 2190 2195 3 20.50160 0.00000 -20.50160 0.00000 0.00000 0.00000 ; imides
2170 2169 2189 2188 3 30.28798 -4.81160 -25.47638 0.00000 0.00000 0.00000 ; imides
2170 2169 2189 2190 3 33.20422 0.00000 -33.20422 0.00000 0.00000 0.00000 ; methylguanidinium ion
2170 2178 2179 2180 3 33.20422 0.00000 -33.20422 0.00000 0.00000 0.00000 ; methylguanidinium ion
2170 2178 2179 2188 3 30.28798 -4.81160 -25.47638 0.00000 0.00000 0.00000 ; imides
2171 2170 2178 2179 3 33.20422 0.00000 -33.20422 0.00000 0.00000 0.00000 ; methylguanidinium ion
2172 2173 11002 11001 3 1.58992 4.76976 0.00000 -6.35968 0.00000 0.00000
2172 2173 11002 11003 3 1.58992 4.76976 0.00000 -6.35968 0.00000 0.00000
2172 2173 11002 11004 3 1.58992 4.76976 0.00000 -6.35968 0.00000 0.00000
2173 11002 11001 11000 3 1.78866 3.49154 0.53555 -5.81576 0.00000 0.00000
2173 11002 11001 11005 3 -1.26775 3.02085 1.74473 -3.49782 0.00000 0.00000
2178 2170 2171 2172 3 33.20422 0.00000 -33.20422 0.00000 0.00000 0.00000 ; methylguanidinium ion
2178 2170 2171 2176 3 20.50160 0.00000 -20.50160 0.00000 0.00000 0.00000 ; imides
2178 2179 2188 2189 3 30.28798 -4.81160 -25.47638 0.00000 0.00000 0.00000 ; imides
2179 2188 2189 2169 3 30.28798 -4.81160 -25.47638 0.00000 0.00000 0.00000 ; imides
2179 2188 2189 2190 3 33.20422 0.00000 -33.20422 0.00000 0.00000 0.00000 ; methylguanidinium ion
2180 2179 2188 2189 3 33.20422 0.00000 -33.20422 0.00000 0.00000 0.00000 ; methylguanidinium ion
2188 2179 2180 2181 3 33.20422 0.00000 -33.20422 0.00000 0.00000 0.00000 ; methylguanidinium ion
2188 2179 2180 2186 3 20.50160 0.00000 -20.50160 0.00000 0.00000 0.00000 ; imides
2189 2169 2170 2171 3 33.20422 0.00000 -33.20422 0.00000 0.00000 0.00000 ; methylguanidinium ion
2189 2169 2170 2178 3 30.28798 -4.81160 -25.47638 0.00000 0.00000 0.00000 ; imides
2191 2192 3655 3654 3 1.58992 4.76976 0.00000 -6.35968 0.00000 0.00000
2191 2192 3655 3656 3 1.58992 4.76976 0.00000 -6.35968 0.00000 0.00000
2191 2192 3655 3657 3 1.58992 4.76976 0.00000 -6.35968 0.00000 0.00000
2192 3655 3654 3653 3 1.78866 3.49154 0.53555 -5.81576 0.00000 0.00000
2192 3655 3654 3658 3 -1.26775 3.02085 1.74473 -3.49782 0.00000 0.00000
2197 2198 2206 2207 3 30.28798 -4.81160 -25.47638 0.00000 0.00000 0.00000 ; imides
2197 2216 2217 2218 3 33.20422 0.00000 -33.20422 0.00000 0.00000 0.00000 ; methylguanidinium ion
2197 2216 2217 2223 3 20.50160 0.00000 -20.50160 0.00000 0.00000 0.00000 ; imides
2198 2197 2216 2215 3 30.28798 -4.81160 -25.47638 0.00000 0.00000 0.00000 ; imides
2198 2197 2216 2217 3 33.20422 0.00000 -33.20422 0.00000 0.00000 0.00000 ; methylguanidinium ion
2198 2206 2207 2208 3 33.20422 0.00000 -33.20422 0.00000 0.00000 0.00000 ; methylguanidinium ion
2198 2206 2207 2215 3 30.28798 -4.81160 -25.47638 0.00000 0.00000 0.00000 ; imides
2199 2198 2206 2207 3 33.20422 0.00000 -33.20422 0.00000 0.00000 0.00000 ; methylguanidinium ion
2200 2201 12115 12114 3 1.58992 4.76976 0.00000 -6.35968 0.00000 0.00000
2200 2201 12115 12116 3 1.58992 4.76976 0.00000 -6.35968 0.00000 0.00000
2200 2201 12115 12117 3 1.58992 4.76976 0.00000 -6.35968 0.00000 0.00000
2201 12115 12114 12113 3 1.78866 3.49154 0.53555 -5.81576 0.00000 0.00000
2201 12115 12114 12118 3 -1.26775 3.02085 1.74473 -3.49782 0.00000 0.00000
2206 2198 2199 2200 3 33.20422 0.00000 -33.20422 0.00000 0.00000 0.00000 ; methylguanidinium ion
2206 2198 2199 2204 3 20.50160 0.00000 -20.50160 0.00000 0.00000 0.00000 ; imides
2206 2207 2215 2216 3 30.28798 -4.81160 -25.47638 0.00000 0.00000 0.00000 ; imides
2207 2215 2216 2197 3 30.28798 -4.81160 -25.47638 0.00000 0.00000 0.00000 ; imides
2207 2215 2216 2217 3 33.20422 0.00000 -33.20422 0.00000 0.00000 0.00000 ; methylguanidinium ion
2208 2207 2215 2216 3 33.20422 0.00000 -33.20422 0.00000 0.00000 0.00000 ; methylguanidinium ion
2209 2210 12956 12955 3 1.58992 4.76976 0.00000 -6.35968 0.00000 0.00000
2209 2210 12956 12957 3 1.58992 4.76976 0.00000 -6.35968 0.00000 0.00000
2209 2210 12956 12958 3 1.58992 4.76976 0.00000 -6.35968 0.00000 0.00000
2210 12956 12955 12954 3 1.78866 3.49154 0.53555 -5.81576 0.00000 0.00000
2210 12956 12955 12959 3 -1.26775 3.02085 1.74473 -3.49782 0.00000 0.00000
2215 2207 2208 2209 3 33.20422 0.00000 -33.20422 0.00000 0.00000 0.00000 ; methylguanidinium ion
2215 2207 2208 2213 3 20.50160 0.00000 -20.50160 0.00000 0.00000 0.00000 ; imides
2216 2197 2198 2199 3 33.20422 0.00000 -33.20422 0.00000 0.00000 0.00000 ; methylguanidinium ion
2216 2197 2198 2206 3 30.28798 -4.81160 -25.47638 0.00000 0.00000 0.00000 ; imides
2225 2226 2234 2235 3 30.28798 -4.81160 -25.47638 0.00000 0.00000 0.00000 ; imides
2225 2244 2245 2246 3 33.20422 0.00000 -33.20422 0.00000 0.00000 0.00000 ; methylguanidinium ion
2225 2244 2245 2250 3 20.50160 0.00000 -20.50160 0.00000 0.00000 0.00000 ; imides
2226 2225 2244 2243 3 30.28798 -4.81160 -25.47638 0.00000 0.00000 0.00000 ; imides
2226 2225 2244 2245 3 33.20422 0.00000 -33.20422 0.00000 0.00000 0.00000 ; methylguanidinium ion
2226 2234 2235 2236 3 33.20422 0.00000 -33.20422 0.00000 0.00000 0.00000 ; methylguanidinium ion
2226 2234 2235 2243 3 30.28798 -4.81160 -25.47638 0.00000 0.00000 0.00000 ; imides
2227 2226 2234 2235 3 33.20422 0.00000 -33.20422 0.00000 0.00000 0.00000 ; methylguanidinium ion
2228 2229 9896 9895 3 1.58992 4.76976 0.00000 -6.35968 0.00000 0.00000
2228 2229 9896 9897 3 1.58992 4.76976 0.00000 -6.35968 0.00000 0.00000
2228 2229 9896 9898 3 1.58992 4.76976 0.00000 -6.35968 0.00000 0.00000
2229 9896 9895 9894 3 1.78866 3.49154 0.53555 -5.81576 0.00000 0.00000
2229 9896 9895 9899 3 -1.26775 3.02085 1.74473 -3.49782 0.00000 0.00000
2234 2226 2227 2228 3 33.20422 0.00000 -33.20422 0.00000 0.00000 0.00000 ; methylguanidinium ion
2234 2226 2227 2232 3 20.50160 0.00000 -20.50160 0.00000 0.00000 0.00000 ; imides
2234 2235 2243 2244 3 30.28798 -4.81160 -25.47638 0.00000 0.00000 0.00000 ; imides
2235 2243 2244 2225 3 30.28798 -4.81160 -25.47638 0.00000 0.00000 0.00000 ; imides
2235 2243 2244 2245 3 33.20422 0.00000 -33.20422 0.00000 0.00000 0.00000 ; methylguanidinium ion
2236 2235 2243 2244 3 33.20422 0.00000 -33.20422 0.00000 0.00000 0.00000 ; methylguanidinium ion
2237 2238 5493 5492 3 1.58992 4.76976 0.00000 -6.35968 0.00000 0.00000
2237 2238 5493 5494 3 1.58992 4.76976 0.00000 -6.35968 0.00000 0.00000
2237 2238 5493 5495 3 1.58992 4.76976 0.00000 -6.35968 0.00000 0.00000
2238 5493 5492 5491 3 1.78866 3.49154 0.53555 -5.81576 0.00000 0.00000
2238 5493 5492 5496 3 -1.26775 3.02085 1.74473 -3.49782 0.00000 0.00000
2243 2235 2236 2237 3 33.20422 0.00000 -33.20422 0.00000 0.00000 0.00000 ; methylguanidinium ion
2243 2235 2236 2241 3 20.50160 0.00000 -20.50160 0.00000 0.00000 0.00000 ; imides
2244 2225 2226 2227 3 33.20422 0.00000 -33.20422 0.00000 0.00000 0.00000 ; methylguanidinium ion
2244 2225 2226 2234 3 30.28798 -4.81160 -25.47638 0.00000 0.00000 0.00000 ; imides
2246 2247 12216 12215 3 1.58992 4.76976 0.00000 -6.35968 0.00000 0.00000
2246 2247 12216 12217 3 1.58992 4.76976 0.00000 -6.35968 0.00000 0.00000
2246 2247 12216 12218 3 1.58992 4.76976 0.00000 -6.35968 0.00000 0.00000
2247 12216 12215 12214 3 1.78866 3.49154 0.53555 -5.81576 0.00000 0.00000
2247 12216 12215 12219 3 -1.26775 3.02085 1.74473 -3.49782 0.00000 0.00000
2252 2253 2261 2262 3 30.28798 -4.81160 -25.47638 0.00000 0.00000 0.00000 ; imides
2252 2271 2272 2273 3 33.20422 0.00000 -33.20422 0.00000 0.00000 0.00000 ; methylguanidinium ion
2252 2271 2272 2277 3 20.50160 0.00000 -20.50160 0.00000 0.00000 0.00000 ; imides
2253 2252 2271 2270 3 30.28798 -4.81160 -25.47638 0.00000 0.00000 0.00000 ; imides
2253 2252 2271 2272 3 33.20422 0.00000 -33.20422 0.00000 0.00000 0.00000 ; methylguanidinium ion
2253 2261 2262 2263 3 33.20422 0.00000 -33.20422 0.00000 0.00000 0.00000 ; methylguanidinium ion
2253 2261 2262 2270 3 30.28798 -4.81160 -25.47638 0.00000 0.00000 0.00000 ; imides
2254 2253 2261 2262 3 33.20422 0.00000 -33.20422 0.00000 0.00000 0.00000 ; methylguanidinium ion
2255 2256 10159 10158 3 1.58992 4.76976 0.00000 -6.35968 0.00000 0.00000
2255 2256 10159 10160 3 1.58992 4.76976 0.00000 -6.35968 0.00000 0.00000
2255 2256 10159 10161 3 1.58992 4.76976 0.00000 -6.35968 0.00000 0.00000
2256 10159 10158 10157 3 1.78866 3.49154 0.53555 -5.81576 0.00000 0.00000
2256 10159 10158 10162 3 -1.26775 3.02085 1.74473 -3.49782 0.00000 0.00000
2261 2253 2254 2255 3 33.20422 0.00000 -33.20422 0.00000 0.00000 0.00000 ; methylguanidinium ion
2261 2253 2254 2259 3 20.50160 0.00000 -20.50160 0.00000 0.00000 0.00000 ; imides
2261 2262 2270 2271 3 30.28798 -4.81160 -25.47638 0.00000 0.00000 0.00000 ; imides
2262 2270 2271 2252 3 30.28798 -4.81160 -25.47638 0.00000 0.00000 0.00000 ; imides
2262 2270 2271 2272 3 33.20422 0.00000 -33.20422 0.00000 0.00000 0.00000 ; methylguanidinium ion
2263 2262 2270 2271 3 33.20422 0.00000 -33.20422 0.00000 0.00000 0.00000 ; methylguanidinium ion
2264 2265 8091 8090 3 1.58992 4.76976 0.00000 -6.35968 0.00000 0.00000
2264 2265 8091 8092 3 1.58992 4.76976 0.00000 -6.35968 0.00000 0.00000
2264 2265 8091 8093 3 1.58992 4.76976 0.00000 -6.35968 0.00000 0.00000
2265 8091 8090 8089 3 1.78866 3.49154 0.53555 -5.81576 0.00000 0.00000
2265 8091 8090 8094 3 -1.26775 3.02085 1.74473 -3.49782 0.00000 0.00000
2270 2262 2263 2264 3 33.20422 0.00000 -33.20422 0.00000 0.00000 0.00000 ; methylguanidinium ion
2270 2262 2263 2268 3 20.50160 0.00000 -20.50160 0.00000 0.00000 0.00000 ; imides
2271 2252 2253 2254 3 33.20422 0.00000 -33.20422 0.00000 0.00000 0.00000 ; methylguanidinium ion
2271 2252 2253 2261 3 30.28798 -4.81160 -25.47638 0.00000 0.00000 0.00000 ; imides
2273 2274 10903 10902 3 1.58992 4.76976 0.00000 -6.35968 0.00000 0.00000
2273 2274 10903 10904 3 1.58992 4.76976 0.00000 -6.35968 0.00000 0.00000
2273 2274 10903 10905 3 1.58992 4.76976 0.00000 -6.35968 0.00000 0.00000
2274 10903 10902 10901 3 1.78866 3.49154 0.53555 -5.81576 0.00000 0.00000
2274 10903 10902 10906 3 -1.26775 3.02085 1.74473 -3.49782 0.00000 0.00000
2279 2280 2288 2289 3 30.28798 -4.81160 -25.47638 0.00000 0.00000 0.00000 ; imides
2279 2298 2299 2300 3 33.20422 0.00000 -33.20422 0.00000 0.00000 0.00000 ; methylguanidinium ion
2279 2298 2299 2304 3 20.50160 0.00000 -20.50160 0.00000 0.00000 0.00000 ; imides
2280 2279 2298 2297 3 30.28798 -4.81160 -25.47638 0.00000 0.00000 0.00000 ; imides
2280 2279 2298 2299 3 33.20422 0.00000 -33.20422 0.00000 0.00000 0.00000 ; methylguanidinium ion
2280 2288 2289 2290 3 33.20422 0.00000 -33.20422 0.00000 0.00000 0.00000 ; methylguanidinium ion
2280 2288 2289 2297 3 30.28798 -4.81160 -25.47638 0.00000 0.00000 0.00000 ; imides
2281 2280 2288 2289 3 33.20422 0.00000 -33.20422 0.00000 0.00000 0.00000 ; methylguanidinium ion
2282 2283 7150 7149 3 1.58992 4.76976 0.00000 -6.35968 0.00000 0.00000
2282 2283 7150 7151 3 1.58992 4.76976 0.00000 -6.35968 0.00000 0.00000
2282 2283 7150 7152 3 1.58992 4.76976 0.00000 -6.35968 0.00000 0.00000
2283 7150 7149 7148 3 1.78866 3.49154 0.53555 -5.81576 0.00000 0.00000
2283 7150 7149 7153 3 -1.26775 3.02085 1.74473 -3.49782 0.00000 0.00000
2288 2280 2281 2282 3 33.20422 0.00000 -33.20422 0.00000 0.00000 0.00000 ; methylguanidinium ion
2288 2280 2281 2286 3 20.50160 0.00000 -20.50160 0.00000 0.00000 0.00000 ; imides
2288 2289 2297 2298 3 30.28798 -4.81160 -25.47638 0.00000 0.00000 0.00000 ; imides
2289 2297 2298 2279 3 30.28798 -4.81160 -25.47638 0.00000 0.00000 0.00000 ; imides
2289 2297 2298 2299 3 33.20422 0.00000 -33.20422 0.00000 0.00000 0.00000 ; methylguanidinium ion
2290 2289 2297 2298 3 33.20422 0.00000 -33.20422 0.00000 0.00000 0.00000 ; methylguanidinium ion
2291 2292 12570 12569 3 1.58992 4.76976 0.00000 -6.35968 0.00000 0.00000
2291 2292 12570 12571 3 1.58992 4.76976 0.00000 -6.35968 0.00000 0.00000
2291 2292 12570 12572 3 1.58992 4.76976 0.00000 -6.35968 0.00000 0.00000
2292 12570 12569 12568 3 1.78866 3.49154 0.53555 -5.81576 0.00000 0.00000
2292 12570 12569 12573 3 -1.26775 3.02085 1.74473 -3.49782 0.00000 0.00000
2297 2289 2290 2291 3 33.20422 0.00000 -33.20422 0.00000 0.00000 0.00000 ; methylguanidinium ion
2297 2289 2290 2295 3 20.50160 0.00000 -20.50160 0.00000 0.00000 0.00000 ; imides
2298 2279 2280 2281 3 33.20422 0.00000 -33.20422 0.00000 0.00000 0.00000 ; methylguanidinium ion
2298 2279 2280 2288 3 30.28798 -4.81160 -25.47638 0.00000 0.00000 0.00000 ; imides
2300 2301 10268 10267 3 1.58992 4.76976 0.00000 -6.35968 0.00000 0.00000
2300 2301 10268 10269 3 1.58992 4.76976 0.00000 -6.35968 0.00000 0.00000
2300 2301 10268 10270 3 1.58992 4.76976 0.00000 -6.35968 0.00000 0.00000
2301 10268 10267 10266 3 1.78866 3.49154 0.53555 -5.81576 0.00000 0.00000
2301 10268 10267 10271 3 -1.26775 3.02085 1.74473 -3.49782 0.00000 0.00000
2306 2307 2315 2316 3 30.28798 -4.81160 -25.47638 0.00000 0.00000 0.00000 ; imides
2306 2325 2326 2327 3 33.20422 0.00000 -33.20422 0.00000 0.00000 0.00000 ; methylguanidinium ion
2306 2325 2326 2331 3 20.50160 0.00000 -20.50160 0.00000 0.00000 0.00000 ; imides
2307 2306 2325 2324 3 30.28798 -4.81160 -25.47638 0.00000 0.00000 0.00000 ; imides
2307 2306 2325 2326 3 33.20422 0.00000 -33.20422 0.00000 0.00000 0.00000 ; methylguanidinium ion
2307 2315 2316 2317 3 33.20422 0.00000 -33.20422 0.00000 0.00000 0.00000 ; methylguanidinium ion
2307 2315 2316 2324 3 30.28798 -4.81160 -25.47638 0.00000 0.00000 0.00000 ; imides
2308 2307 2315 2316 3 33.20422 0.00000 -33.20422 0.00000 0.00000 0.00000 ; methylguanidinium ion
2309 2310 10284 10283 3 1.58992 4.76976 0.00000 -6.35968 0.00000 0.00000
2309 2310 10284 10285 3 1.58992 4.76976 0.00000 -6.35968 0.00000 0.00000
2309 2310 10284 10286 3 1.58992 4.76976 0.00000 -6.35968 0.00000 0.00000
2310 10284 10283 10282 3 1.78866 3.49154 0.53555 -5.81576 0.00000 0.00000
2310 10284 10283 10287 3 -1.26775 3.02085 1.74473 -3.49782 0.00000 0.00000
2315 2307 2308 2309 3 33.20422 0.00000 -33.20422 0.00000 0.00000 0.00000 ; methylguanidinium ion
2315 2307 2308 2313 3 20.50160 0.00000 -20.50160 0.00000 0.00000 0.00000 ; imides
2315 2316 2324 2325 3 30.28798 -4.81160 -25.47638 0.00000 0.00000 0.00000 ; imides
2316 2324 2325 2306 3 30.28798 -4.81160 -25.47638 0.00000 0.00000 0.00000 ; imides
2316 2324 2325 2326 3 33.20422 0.00000 -33.20422 0.00000 0.00000 0.00000 ; methylguanidinium ion
2317 2316 2324 2325 3 33.20422 0.00000 -33.20422 0.00000 0.00000 0.00000 ; methylguanidinium ion
2318 2319 8457 8456 3 1.58992 4.76976 0.00000 -6.35968 0.00000 0.00000
2318 2319 8457 8458 3 1.58992 4.76976 0.00000 -6.35968 0.00000 0.00000
2318 2319 8457 8459 3 1.58992 4.76976 0.00000 -6.35968 0.00000 0.00000
2319 8457 8456 8455 3 1.78866 3.49154 0.53555 -5.81576 0.00000 0.00000
2319 8457 8456 8460 3 -1.26775 3.02085 1.74473 -3.49782 0.00000 0.00000
2324 2316 2317 2318 3 33.20422 0.00000 -33.20422 0.00000 0.00000 0.00000 ; methylguanidinium ion
2324 2316 2317 2322 3 20.50160 0.00000 -20.50160 0.00000 0.00000 0.00000 ; imides
2325 2306 2307 2308 3 33.20422 0.00000 -33.20422 0.00000 0.00000 0.00000 ; methylguanidinium ion
2325 2306 2307 2315 3 30.28798 -4.81160 -25.47638 0.00000 0.00000 0.00000 ; imides
2327 2328 9114 9113 3 1.58992 4.76976 0.00000 -6.35968 0.00000 0.00000
2327 2328 9114 9115 3 1.58992 4.76976 0.00000 -6.35968 0.00000 0.00000
2327 2328 9114 9116 3 1.58992 4.76976 0.00000 -6.35968 0.00000 0.00000
2328 9114 9113 9112 3 1.78866 3.49154 0.53555 -5.81576 0.00000 0.00000
2328 9114 9113 9117 3 -1.26775 3.02085 1.74473 -3.49782 0.00000 0.00000
2333 2334 2342 2343 3 30.28798 -4.81160 -25.47638 0.00000 0.00000 0.00000 ; imides
2333 2352 2353 2354 3 33.20422 0.00000 -33.20422 0.00000 0.00000 0.00000 ; methylguanidinium ion
2333 2352 2353 2359 3 20.50160 0.00000 -20.50160 0.00000 0.00000 0.00000 ; imides
2334 2333 2352 2351 3 30.28798 -4.81160 -25.47638 0.00000 0.00000 0.00000 ; imides
2334 2333 2352 2353 3 33.20422 0.00000 -33.20422 0.00000 0.00000 0.00000 ; methylguanidinium ion
2334 2342 2343 2344 3 33.20422 0.00000 -33.20422 0.00000 0.00000 0.00000 ; methylguanidinium ion
2334 2342 2343 2351 3 30.28798 -4.81160 -25.47638 0.00000 0.00000 0.00000 ; imides
2335 2334 2342 2343 3 33.20422 0.00000 -33.20422 0.00000 0.00000 0.00000 ; methylguanidinium ion
2336 2337 9073 9072 3 1.58992 4.76976 0.00000 -6.35968 0.00000 0.00000
2336 2337 9073 9074 3 1.58992 4.76976 0.00000 -6.35968 0.00000 0.00000
2336 2337 9073 9075 3 1.58992 4.76976 0.00000 -6.35968 0.00000 0.00000
2337 9073 9072 9071 3 1.78866 3.49154 0.53555 -5.81576 0.00000 0.00000
2337 9073 9072 9076 3 -1.26775 3.02085 1.74473 -3.49782 0.00000 0.00000
2342 2334 2335 2336 3 33.20422 0.00000 -33.20422 0.00000 0.00000 0.00000 ; methylguanidinium ion
2342 2334 2335 2340 3 20.50160 0.00000 -20.50160 0.00000 0.00000 0.00000 ; imides
2342 2343 2351 2352 3 30.28798 -4.81160 -25.47638 0.00000 0.00000 0.00000 ; imides
2343 2351 2352 2333 3 30.28798 -4.81160 -25.47638 0.00000 0.00000 0.00000 ; imides
2343 2351 2352 2353 3 33.20422 0.00000 -33.20422 0.00000 0.00000 0.00000 ; methylguanidinium ion
2344 2343 2351 2352 3 33.20422 0.00000 -33.20422 0.00000 0.00000 0.00000 ; methylguanidinium ion
2345 2346 11220 11219 3 1.58992 4.76976 0.00000 -6.35968 0.00000 0.00000
2345 2346 11220 11221 3 1.58992 4.76976 0.00000 -6.35968 0.00000 0.00000
2345 2346 11220 11222 3 1.58992 4.76976 0.00000 -6.35968 0.00000 0.00000
2346 11220 11219 11218 3 1.78866 3.49154 0.53555 -5.81576 0.00000 0.00000
2346 11220 11219 11223 3 -1.26775 3.02085 1.74473 -3.49782 0.00000 0.00000
2351 2343 2344 2345 3 33.20422 0.00000 -33.20422 0.00000 0.00000 0.00000 ; methylguanidinium ion
2351 2343 2344 2349 3 20.50160 0.00000 -20.50160 0.00000 0.00000 0.00000 ; imides
2352 2333 2334 2335 3 33.20422 0.00000 -33.20422 0.00000 0.00000 0.00000 ; methylguanidinium ion
2352 2333 2334 2342 3 30.28798 -4.81160 -25.47638 0.00000 0.00000 0.00000 ; imides
2361 2362 2369 2370 3 30.28798 -4.81160 -25.47638 0.00000 0.00000 0.00000 ; imides
2361 2379 2380 2381 3 33.20422 0.00000 -33.20422 0.00000 0.00000 0.00000 ; methylguanidinium ion
2361 2379 2380 2385 3 20.50160 0.00000 -20.50160 0.00000 0.00000 0.00000 ; imides
2362 2361 2379 2378 3 30.28798 -4.81160 -25.47638 0.00000 0.00000 0.00000 ; imides
2362 2361 2379 2380 3 33.20422 0.00000 -33.20422 0.00000 0.00000 0.00000 ; methylguanidinium ion
2362 2369 2370 2371 3 33.20422 0.00000 -33.20422 0.00000 0.00000 0.00000 ; methylguanidinium ion
2362 2369 2370 2378 3 30.28798 -4.81160 -25.47638 0.00000 0.00000 0.00000 ; imides
2363 2362 2369 2370 3 33.20422 0.00000 -33.20422 0.00000 0.00000 0.00000 ; methylguanidinium ion
2364 952 951 950 3 1.58992 4.76976 0.00000 -6.35968 0.00000 0.00000
2364 952 951 953 3 1.58992 4.76976 0.00000 -6.35968 0.00000 0.00000
2364 952 951 954 3 1.58992 4.76976 0.00000 -6.35968 0.00000 0.00000
2369 2362 2363 2364 3 33.20422 0.00000 -33.20422 0.00000 0.00000 0.00000 ; methylguanidinium ion
2369 2362 2363 2367 3 20.50160 0.00000 -20.50160 0.00000 0.00000 0.00000 ; imides
2369 2370 2378 2379 3 30.28798 -4.81160 -25.47638 0.00000 0.00000 0.00000 ; imides
2370 2378 2379 2361 3 30.28798 -4.81160 -25.47638 0.00000 0.00000 0.00000 ; imides
2370 2378 2379 2380 3 33.20422 0.00000 -33.20422 0.00000 0.00000 0.00000 ; methylguanidinium ion
2371 2370 2378 2379 3 33.20422 0.00000 -33.20422 0.00000 0.00000 0.00000 ; methylguanidinium ion
2372 2373 10468 10467 3 1.58992 4.76976 0.00000 -6.35968 0.00000 0.00000
2372 2373 10468 10469 3 1.58992 4.76976 0.00000 -6.35968 0.00000 0.00000
2372 2373 10468 10470 3 1.58992 4.76976 0.00000 -6.35968 0.00000 0.00000
2373 10468 10467 10466 3 1.78866 3.49154 0.53555 -5.81576 0.00000 0.00000
2373 10468 10467 10471 3 -1.26775 3.02085 1.74473 -3.49782 0.00000 0.00000
2378 2370 2371 2372 3 33.20422 0.00000 -33.20422 0.00000 0.00000 0.00000 ; methylguanidinium ion
2378 2370 2371 2376 3 20.50160 0.00000 -20.50160 0.00000 0.00000 0.00000 ; imides
2379 2361 2362 2363 3 33.20422 0.00000 -33.20422 0.00000 0.00000 0.00000 ; methylguanidinium ion
2379 2361 2362 2369 3 30.28798 -4.81160 -25.47638 0.00000 0.00000 0.00000 ; imides
2381 2382 12370 12369 3 1.58992 4.76976 0.00000 -6.35968 0.00000 0.00000
2381 2382 12370 12371 3 1.58992 4.76976 0.00000 -6.35968 0.00000 0.00000
2381 2382 12370 12372 3 1.58992 4.76976 0.00000 -6.35968 0.00000 0.00000
2382 12370 12369 12368 3 1.78866 3.49154 0.53555 -5.81576 0.00000 0.00000
2382 12370 12369 12373 3 -1.26775 3.02085 1.74473 -3.49782 0.00000 0.00000
2387 2388 2396 2397 3 30.28798 -4.81160 -25.47638 0.00000 0.00000 0.00000 ; imides
2387 2406 2407 2408 3 33.20422 0.00000 -33.20422 0.00000 0.00000 0.00000 ; methylguanidinium ion
2387 2406 2407 2412 3 20.50160 0.00000 -20.50160 0.00000 0.00000 0.00000 ; imides
2388 2387 2406 2405 3 30.28798 -4.81160 -25.47638 0.00000 0.00000 0.00000 ; imides
2388 2387 2406 2407 3 33.20422 0.00000 -33.20422 0.00000 0.00000 0.00000 ; methylguanidinium ion
2388 2396 2397 2398 3 33.20422 0.00000 -33.20422 0.00000 0.00000 0.00000 ; methylguanidinium ion
2388 2396 2397 2405 3 30.28798 -4.81160 -25.47638 0.00000 0.00000 0.00000 ; imides
2389 2388 2396 2397 3 33.20422 0.00000 -33.20422 0.00000 0.00000 0.00000 ; methylguanidinium ion
2390 2391 3027 3026 3 1.58992 4.76976 0.00000 -6.35968 0.00000 0.00000
2390 2391 3027 3028 3 1.58992 4.76976 0.00000 -6.35968 0.00000 0.00000
2390 2391 3027 3029 3 1.58992 4.76976 0.00000 -6.35968 0.00000 0.00000
2391 3027 3026 3025 3 1.78866 3.49154 0.53555 -5.81576 0.00000 0.00000
2391 3027 3026 3030 3 -1.26775 3.02085 1.74473 -3.49782 0.00000 0.00000
2396 2388 2389 2390 3 33.20422 0.00000 -33.20422 0.00000 0.00000 0.00000 ; methylguanidinium ion
2396 2388 2389 2394 3 20.50160 0.00000 -20.50160 0.00000 0.00000 0.00000 ; imides
2396 2397 2405 2406 3 30.28798 -4.81160 -25.47638 0.00000 0.00000 0.00000 ; imides
2397 2405 2406 2387 3 30.28798 -4.81160 -25.47638 0.00000 0.00000 0.00000 ; imides
2397 2405 2406 2407 3 33.20422 0.00000 -33.20422 0.00000 0.00000 0.00000 ; methylguanidinium ion
2398 2397 2405 2406 3 33.20422 0.00000 -33.20422 0.00000 0.00000 0.00000 ; methylguanidinium ion
2399 2400 6620 6619 3 1.58992 4.76976 0.00000 -6.35968 0.00000 0.00000
2399 2400 6620 6621 3 1.58992 4.76976 0.00000 -6.35968 0.00000 0.00000
2399 2400 6620 6622 3 1.58992 4.76976 0.00000 -6.35968 0.00000 0.00000
2400 6620 6619 6618 3 1.78866 3.49154 0.53555 -5.81576 0.00000 0.00000
2400 6620 6619 6623 3 -1.26775 3.02085 1.74473 -3.49782 0.00000 0.00000
2405 2397 2398 2399 3 33.20422 0.00000 -33.20422 0.00000 0.00000 0.00000 ; methylguanidinium ion
2405 2397 2398 2403 3 20.50160 0.00000 -20.50160 0.00000 0.00000 0.00000 ; imides
2406 2387 2388 2389 3 33.20422 0.00000 -33.20422 0.00000 0.00000 0.00000 ; methylguanidinium ion
2406 2387 2388 2396 3 30.28798 -4.81160 -25.47638 0.00000 0.00000 0.00000 ; imides
2408 2409 10792 10791 3 1.58992 4.76976 0.00000 -6.35968 0.00000 0.00000
2408 2409 10792 10793 3 1.58992 4.76976 0.00000 -6.35968 0.00000 0.00000
2408 2409 10792 10794 3 1.58992 4.76976 0.00000 -6.35968 0.00000 0.00000
2409 10792 10791 10790 3 1.78866 3.49154 0.53555 -5.81576 0.00000 0.00000
2409 10792 10791 10795 3 -1.26775 3.02085 1.74473 -3.49782 0.00000 0.00000
2414 2415 2423 2424 3 30.28798 -4.81160 -25.47638 0.00000 0.00000 0.00000 ; imides
2414 2432 2433 2434 3 33.20422 0.00000 -33.20422 0.00000 0.00000 0.00000 ; methylguanidinium ion
2414 2432 2433 2438 3 20.50160 0.00000 -20.50160 0.00000 0.00000 0.00000 ; imides
2415 2414 2432 2431 3 30.28798 -4.81160 -25.47638 0.00000 0.00000 0.00000 ; imides
2415 2414 2432 2433 3 33.20422 0.00000 -33.20422 0.00000 0.00000 0.00000 ; methylguanidinium ion
2415 2423 2424 2425 3 33.20422 0.00000 -33.20422 0.00000 0.00000 0.00000 ; methylguanidinium ion
2415 2423 2424 2431 3 30.28798 -4.81160 -25.47638 0.00000 0.00000 0.00000 ; imides
2416 2415 2423 2424 3 33.20422 0.00000 -33.20422 0.00000 0.00000 0.00000 ; methylguanidinium ion
2417 2418 3011 3010 3 1.58992 4.76976 0.00000 -6.35968 0.00000 0.00000
2417 2418 3011 3012 3 1.58992 4.76976 0.00000 -6.35968 0.00000 0.00000
2417 2418 3011 3013 3 1.58992 4.76976 0.00000 -6.35968 0.00000 0.00000
2418 3011 3010 3009 3 1.78866 3.49154 0.53555 -5.81576 0.00000 0.00000
2418 3011 3010 3014 3 -1.26775 3.02085 1.74473 -3.49782 0.00000 0.00000
2423 2415 2416 2417 3 33.20422 0.00000 -33.20422 0.00000 0.00000 0.00000 ; methylguanidinium ion
2423 2415 2416 2421 3 20.50160 0.00000 -20.50160 0.00000 0.00000 0.00000 ; imides
2423 2424 2431 2432 3 30.28798 -4.81160 -25.47638 0.00000 0.00000 0.00000 ; imides
2424 2431 2432 2414 3 30.28798 -4.81160 -25.47638 0.00000 0.00000 0.00000 ; imides
2424 2431 2432 2433 3 33.20422 0.00000 -33.20422 0.00000 0.00000 0.00000 ; methylguanidinium ion
2425 2424 2431 2432 3 33.20422 0.00000 -33.20422 0.00000 0.00000 0.00000 ; methylguanidinium ion
2426 135 134 133 3 1.58992 4.76976 0.00000 -6.35968 0.00000 0.00000
2426 135 134 136 3 1.58992 4.76976 0.00000 -6.35968 0.00000 0.00000
2426 135 134 137 3 1.58992 4.76976 0.00000 -6.35968 0.00000 0.00000
2431 2424 2425 2426 3 33.20422 0.00000 -33.20422 0.00000 0.00000 0.00000 ; methylguanidinium ion
2431 2424 2425 2429 3 20.50160 0.00000 -20.50160 0.00000 0.00000 0.00000 ; imides
2432 2414 2415 2416 3 33.20422 0.00000 -33.20422 0.00000 0.00000 0.00000 ; methylguanidinium ion
2432 2414 2415 2423 3 30.28798 -4.81160 -25.47638 0.00000 0.00000 0.00000 ; imides
2434 2435 8254 8253 3 1.58992 4.76976 0.00000 -6.35968 0.00000 0.00000
2434 2435 8254 8255 3 1.58992 4.76976 0.00000 -6.35968 0.00000 0.00000
2434 2435 8254 8256 3 1.58992 4.76976 0.00000 -6.35968 0.00000 0.00000
2435 8254 8253 8252 3 1.78866 3.49154 0.53555 -5.81576 0.00000 0.00000
2435 8254 8253 8257 3 -1.26775 3.02085 1.74473 -3.49782 0.00000 0.00000
2440 2441 2450 2451 3 30.28798 -4.81160 -25.47638 0.00000 0.00000 0.00000 ; imides
2440 2460 2461 2462 3 33.20422 0.00000 -33.20422 0.00000 0.00000 0.00000 ; methylguanidinium ion
2440 2460 2461 2466 3 20.50160 0.00000 -20.50160 0.00000 0.00000 0.00000 ; imides
2441 2440 2460 2459 3 30.28798 -4.81160 -25.47638 0.00000 0.00000 0.00000 ; imides
2441 2440 2460 2461 3 33.20422 0.00000 -33.20422 0.00000 0.00000 0.00000 ; methylguanidinium ion
2441 2450 2451 2452 3 33.20422 0.00000 -33.20422 0.00000 0.00000 0.00000 ; methylguanidinium ion
2441 2450 2451 2459 3 30.28798 -4.81160 -25.47638 0.00000 0.00000 0.00000 ; imides
2442 2441 2450 2451 3 33.20422 0.00000 -33.20422 0.00000 0.00000 0.00000 ; methylguanidinium ion
2450 2441 2442 2443 3 33.20422 0.00000 -33.20422 0.00000 0.00000 0.00000 ; methylguanidinium ion
2450 2441 2442 2448 3 20.50160 0.00000 -20.50160 0.00000 0.00000 0.00000 ; imides
2450 2451 2459 2460 3 30.28798 -4.81160 -25.47638 0.00000 0.00000 0.00000 ; imides
2451 2459 2460 2440 3 30.28798 -4.81160 -25.47638 0.00000 0.00000 0.00000 ; imides
2451 2459 2460 2461 3 33.20422 0.00000 -33.20422 0.00000 0.00000 0.00000 ; methylguanidinium ion
2452 2451 2459 2460 3 33.20422 0.00000 -33.20422 0.00000 0.00000 0.00000 ; methylguanidinium ion
2453 2454 12282 12281 3 1.58992 4.76976 0.00000 -6.35968 0.00000 0.00000
2453 2454 12282 12283 3 1.58992 4.76976 0.00000 -6.35968 0.00000 0.00000
2453 2454 12282 12284 3 1.58992 4.76976 0.00000 -6.35968 0.00000 0.00000
2454 12282 12281 12280 3 1.78866 3.49154 0.53555 -5.81576 0.00000 0.00000
2454 12282 12281 12285 3 -1.26775 3.02085 1.74473 -3.49782 0.00000 0.00000
2459 2451 2452 2453 3 33.20422 0.00000 -33.20422 0.00000 0.00000 0.00000 ; methylguanidinium ion
2459 2451 2452 2457 3 20.50160 0.00000 -20.50160 0.00000 0.00000 0.00000 ; imides
2460 2440 2441 2442 3 33.20422 0.00000 -33.20422 0.00000 0.00000 0.00000 ; methylguanidinium ion
2460 2440 2441 2450 3 30.28798 -4.81160 -25.47638 0.00000 0.00000 0.00000 ; imides
2462 2463 3709 3708 3 1.58992 4.76976 0.00000 -6.35968 0.00000 0.00000
2462 2463 3709 3710 3 1.58992 4.76976 0.00000 -6.35968 0.00000 0.00000
2462 2463 3709 3711 3 1.58992 4.76976 0.00000 -6.35968 0.00000 0.00000
2463 3709 3708 3707 3 1.78866 3.49154 0.53555 -5.81576 0.00000 0.00000
2463 3709 3708 3712 3 -1.26775 3.02085 1.74473 -3.49782 0.00000 0.00000
2468 2469 2476 2477 3 30.28798 -4.81160 -25.47638 0.00000 0.00000 0.00000 ; imides
2468 2486 2487 2488 3 33.20422 0.00000 -33.20422 0.00000 0.00000 0.00000 ; methylguanidinium ion
2468 2486 2487 2492 3 20.50160 0.00000 -20.50160 0.00000 0.00000 0.00000 ; imides
2469 2468 2486 2485 3 30.28798 -4.81160 -25.47638 0.00000 0.00000 0.00000 ; imides
2469 2468 2486 2487 3 33.20422 0.00000 -33.20422 0.00000 0.00000 0.00000 ; methylguanidinium ion
2469 2476 2477 2478 3 33.20422 0.00000 -33.20422 0.00000 0.00000 0.00000 ; methylguanidinium ion
2469 2476 2477 2485 3 30.28798 -4.81160 -25.47638 0.00000 0.00000 0.00000 ; imides
2470 2469 2476 2477 3 33.20422 0.00000 -33.20422 0.00000 0.00000 0.00000 ; methylguanidinium ion
2471 1370 1369 1368 3 1.58992 4.76976 0.00000 -6.35968 0.00000 0.00000
2471 1370 1369 1371 3 1.58992 4.76976 0.00000 -6.35968 0.00000 0.00000
2471 1370 1369 1372 3 1.58992 4.76976 0.00000 -6.35968 0.00000 0.00000
2476 2469 2470 2471 3 33.20422 0.00000 -33.20422 0.00000 0.00000 0.00000 ; methylguanidinium ion
2476 2469 2470 2474 3 20.50160 0.00000 -20.50160 0.00000 0.00000 0.00000 ; imides
2476 2477 2485 2486 3 30.28798 -4.81160 -25.47638 0.00000 0.00000 0.00000 ; imides
2477 2485 2486 2468 3 30.28798 -4.81160 -25.47638 0.00000 0.00000 0.00000 ; imides
2477 2485 2486 2487 3 33.20422 0.00000 -33.20422 0.00000 0.00000 0.00000 ; methylguanidinium ion
2478 2477 2485 2486 3 33.20422 0.00000 -33.20422 0.00000 0.00000 0.00000 ; methylguanidinium ion
2479 2480 2887 2886 3 1.58992 4.76976 0.00000 -6.35968 0.00000 0.00000
2479 2480 2887 2888 3 1.58992 4.76976 0.00000 -6.35968 0.00000 0.00000
2479 2480 2887 2889 3 1.58992 4.76976 0.00000 -6.35968 0.00000 0.00000
2480 2887 2886 2885 3 1.78866 3.49154 0.53555 -5.81576 0.00000 0.00000
2480 2887 2886 2890 3 -1.26775 3.02085 1.74473 -3.49782 0.00000 0.00000
2485 2477 2478 2479 3 33.20422 0.00000 -33.20422 0.00000 0.00000 0.00000 ; methylguanidinium ion
2485 2477 2478 2483 3 20.50160 0.00000 -20.50160 0.00000 0.00000 0.00000 ; imides
2486 2468 2469 2470 3 33.20422 0.00000 -33.20422 0.00000 0.00000 0.00000 ; methylguanidinium ion
2486 2468 2469 2476 3 30.28798 -4.81160 -25.47638 0.00000 0.00000 0.00000 ; imides
2488 2489 5511 5510 3 1.58992 4.76976 0.00000 -6.35968 0.00000 0.00000
2488 2489 5511 5512 3 1.58992 4.76976 0.00000 -6.35968 0.00000 0.00000
2488 2489 5511 5513 3 1.58992 4.76976 0.00000 -6.35968 0.00000 0.00000
2489 5511 5510 5509 3 1.78866 3.49154 0.53555 -5.81576 0.00000 0.00000
2489 5511 5510 5514 3 -1.26775 3.02085 1.74473 -3.49782 0.00000 0.00000
2494 2495 2503 2504 3 30.28798 -4.81160 -25.47638 0.00000 0.00000 0.00000 ; imides
2494 2513 2514 2515 3 33.20422 0.00000 -33.20422 0.00000 0.00000 0.00000 ; methylguanidinium ion
2494 2513 2514 2519 3 20.50160 0.00000 -20.50160 0.00000 0.00000 0.00000 ; imides
2495 2494 2513 2512 3 30.28798 -4.81160 -25.47638 0.00000 0.00000 0.00000 ; imides
2495 2494 2513 2514 3 33.20422 0.00000 -33.20422 0.00000 0.00000 0.00000 ; methylguanidinium ion
2495 2503 2504 2505 3 33.20422 0.00000 -33.20422 0.00000 0.00000 0.00000 ; methylguanidinium ion
2495 2503 2504 2512 3 30.28798 -4.81160 -25.47638 0.00000 0.00000 0.00000 ; imides
2496 2495 2503 2504 3 33.20422 0.00000 -33.20422 0.00000 0.00000 0.00000 ; methylguanidinium ion
2497 2498 4374 4373 3 1.58992 4.76976 0.00000 -6.35968 0.00000 0.00000
2497 2498 4374 4375 3 1.58992 4.76976 0.00000 -6.35968 0.00000 0.00000
2497 2498 4374 4376 3 1.58992 4.76976 0.00000 -6.35968 0.00000 0.00000
2498 4374 4373 4372 3 1.78866 3.49154 0.53555 -5.81576 0.00000 0.00000
2498 4374 4373 4377 3 -1.26775 3.02085 1.74473 -3.49782 0.00000 0.00000
2503 2495 2496 2497 3 33.20422 0.00000 -33.20422 0.00000 0.00000 0.00000 ; methylguanidinium ion
2503 2495 2496 2501 3 20.50160 0.00000 -20.50160 0.00000 0.00000 0.00000 ; imides
2503 2504 2512 2513 3 30.28798 -4.81160 -25.47638 0.00000 0.00000 0.00000 ; imides
2504 2512 2513 2494 3 30.28798 -4.81160 -25.47638 0.00000 0.00000 0.00000 ; imides
2504 2512 2513 2514 3 33.20422 0.00000 -33.20422 0.00000 0.00000 0.00000 ; methylguanidinium ion
2505 2504 2512 2513 3 33.20422 0.00000 -33.20422 0.00000 0.00000 0.00000 ; methylguanidinium ion
2506 2507 2871 2870 3 1.58992 4.76976 0.00000 -6.35968 0.00000 0.00000
2506 2507 2871 2872 3 1.58992 4.76976 0.00000 -6.35968 0.00000 0.00000
2506 2507 2871 2873 3 1.58992 4.76976 0.00000 -6.35968 0.00000 0.00000
2507 2871 2870 2869 3 1.78866 3.49154 0.53555 -5.81576 0.00000 0.00000
2507 2871 2870 2874 3 -1.26775 3.02085 1.74473 -3.49782 0.00000 0.00000
2512 2504 2505 2506 3 33.20422 0.00000 -33.20422 0.00000 0.00000 0.00000 ; methylguanidinium ion
2512 2504 2505 2510 3 20.50160 0.00000 -20.50160 0.00000 0.00000 0.00000 ; imides
2513 2494 2495 2496 3 33.20422 0.00000 -33.20422 0.00000 0.00000 0.00000 ; methylguanidinium ion
2513 2494 2495 2503 3 30.28798 -4.81160 -25.47638 0.00000 0.00000 0.00000 ; imides
2515 2516 10300 10299 3 1.58992 4.76976 0.00000 -6.35968 0.00000 0.00000
2515 2516 10300 10301 3 1.58992 4.76976 0.00000 -6.35968 0.00000 0.00000
2515 2516 10300 10302 3 1.58992 4.76976 0.00000 -6.35968 0.00000 0.00000
2516 10300 10299 10298 3 1.78866 3.49154 0.53555 -5.81576 0.00000 0.00000
2516 10300 10299 10303 3 -1.26775 3.02085 1.74473 -3.49782 0.00000 0.00000
2521 2522 2530 2531 3 30.28798 -4.81160 -25.47638 0.00000 0.00000 0.00000 ; imides
2521 2539 2540 2541 3 33.20422 0.00000 -33.20422 0.00000 0.00000 0.00000 ; methylguanidinium ion
2521 2539 2540 2545 3 20.50160 0.00000 -20.50160 0.00000 0.00000 0.00000 ; imides
2522 2521 2539 2538 3 30.28798 -4.81160 -25.47638 0.00000 0.00000 0.00000 ; imides
2522 2521 2539 2540 3 33.20422 0.00000 -33.20422 0.00000 0.00000 0.00000 ; methylguanidinium ion
2522 2530 2531 2532 3 33.20422 0.00000 -33.20422 0.00000 0.00000 0.00000 ; methylguanidinium ion
2522 2530 2531 2538 3 30.28798 -4.81160 -25.47638 0.00000 0.00000 0.00000 ; imides
2523 2522 2530 2531 3 33.20422 0.00000 -33.20422 0.00000 0.00000 0.00000 ; methylguanidinium ion
2524 2525 6909 6908 3 1.58992 4.76976 0.00000 -6.35968 0.00000 0.00000
2524 2525 6909 6910 3 1.58992 4.76976 0.00000 -6.35968 0.00000 0.00000
2524 2525 6909 6911 3 1.58992 4.76976 0.00000 -6.35968 0.00000 0.00000
2525 6909 6908 6907 3 1.78866 3.49154 0.53555 -5.81576 0.00000 0.00000
2525 6909 6908 6912 3 -1.26775 3.02085 1.74473 -3.49782 0.00000 0.00000
2530 2522 2523 2524 3 33.20422 0.00000 -33.20422 0.00000 0.00000 0.00000 ; methylguanidinium ion
2530 2522 2523 2528 3 20.50160 0.00000 -20.50160 0.00000 0.00000 0.00000 ; imides
2530 2531 2538 2539 3 30.28798 -4.81160 -25.47638 0.00000 0.00000 0.00000 ; imides
2531 2538 2539 2521 3 30.28798 -4.81160 -25.47638 0.00000 0.00000 0.00000 ; imides
2531 2538 2539 2540 3 33.20422 0.00000 -33.20422 0.00000 0.00000 0.00000 ; methylguanidinium ion
2532 2531 2538 2539 3 33.20422 0.00000 -33.20422 0.00000 0.00000 0.00000 ; methylguanidinium ion
2533 1252 1251 1250 3 1.58992 4.76976 0.00000 -6.35968 0.00000 0.00000
2533 1252 1251 1253 3 1.58992 4.76976 0.00000 -6.35968 0.00000 0.00000
2533 1252 1251 1254 3 1.58992 4.76976 0.00000 -6.35968 0.00000 0.00000
2538 2531 2532 2533 3 33.20422 0.00000 -33.20422 0.00000 0.00000 0.00000 ; methylguanidinium ion
2538 2531 2532 2536 3 20.50160 0.00000 -20.50160 0.00000 0.00000 0.00000 ; imides
2539 2521 2522 2523 3 33.20422 0.00000 -33.20422 0.00000 0.00000 0.00000 ; methylguanidinium ion
2539 2521 2522 2530 3 30.28798 -4.81160 -25.47638 0.00000 0.00000 0.00000 ; imides
2541 2542 9192 9191 3 1.58992 4.76976 0.00000 -6.35968 0.00000 0.00000
2541 2542 9192 9193 3 1.58992 4.76976 0.00000 -6.35968 0.00000 0.00000
2541 2542 9192 9194 3 1.58992 4.76976 0.00000 -6.35968 0.00000 0.00000
2542 9192 9191 9190 3 1.78866 3.49154 0.53555 -5.81576 0.00000 0.00000
2542 9192 9191 9195 3 -1.26775 3.02085 1.74473 -3.49782 0.00000 0.00000
2547 2548 2556 2557 3 30.28798 -4.81160 -25.47638 0.00000 0.00000 0.00000 ; imides
2547 2566 2567 2568 3 33.20422 0.00000 -33.20422 0.00000 0.00000 0.00000 ; methylguanidinium ion
2547 2566 2567 2572 3 20.50160 0.00000 -20.50160 0.00000 0.00000 0.00000 ; imides
2548 2547 2566 2565 3 30.28798 -4.81160 -25.47638 0.00000 0.00000 0.00000 ; imides
2548 2547 2566 2567 3 33.20422 0.00000 -33.20422 0.00000 0.00000 0.00000 ; methylguanidinium ion
2548 2556 2557 2558 3 33.20422 0.00000 -33.20422 0.00000 0.00000 0.00000 ; methylguanidinium ion
2548 2556 2557 2565 3 30.28798 -4.81160 -25.47638 0.00000 0.00000 0.00000 ; imides
2549 2548 2556 2557 3 33.20422 0.00000 -33.20422 0.00000 0.00000 0.00000 ; methylguanidinium ion
2550 2551 2730 2729 3 1.58992 4.76976 0.00000 -6.35968 0.00000 0.00000
2550 2551 2730 2731 3 1.58992 4.76976 0.00000 -6.35968 0.00000 0.00000
2550 2551 2730 2732 3 1.58992 4.76976 0.00000 -6.35968 0.00000 0.00000
2551 2730 2729 2728 3 1.78866 3.49154 0.53555 -5.81576 0.00000 0.00000
2551 2730 2729 2733 3 -1.26775 3.02085 1.74473 -3.49782 0.00000 0.00000
2556 2548 2549 2550 3 33.20422 0.00000 -33.20422 0.00000 0.00000 0.00000 ; methylguanidinium ion
2556 2548 2549 2554 3 20.50160 0.00000 -20.50160 0.00000 0.00000 0.00000 ; imides
2556 2557 2565 2566 3 30.28798 -4.81160 -25.47638 0.00000 0.00000 0.00000 ; imides
2557 2565 2566 2547 3 30.28798 -4.81160 -25.47638 0.00000 0.00000 0.00000 ; imides
2557 2565 2566 2567 3 33.20422 0.00000 -33.20422 0.00000 0.00000 0.00000 ; methylguanidinium ion
2558 2557 2565 2566 3 33.20422 0.00000 -33.20422 0.00000 0.00000 0.00000 ; methylguanidinium ion
2559 2560 11948 11947 3 1.58992 4.76976 0.00000 -6.35968 0.00000 0.00000
2559 2560 11948 11949 3 1.58992 4.76976 0.00000 -6.35968 0.00000 0.00000
2559 2560 11948 11950 3 1.58992 4.76976 0.00000 -6.35968 0.00000 0.00000
2560 11948 11947 11946 3 1.78866 3.49154 0.53555 -5.81576 0.00000 0.00000
2560 11948 11947 11951 3 -1.26775 3.02085 1.74473 -3.49782 0.00000 0.00000
2565 2557 2558 2559 3 33.20422 0.00000 -33.20422 0.00000 0.00000 0.00000 ; methylguanidinium ion
2565 2557 2558 2563 3 20.50160 0.00000 -20.50160 0.00000 0.00000 0.00000 ; imides
2566 2547 2548 2549 3 33.20422 0.00000 -33.20422 0.00000 0.00000 0.00000 ; methylguanidinium ion
2566 2547 2548 2556 3 30.28798 -4.81160 -25.47638 0.00000 0.00000 0.00000 ; imides
2568 2569 11767 11766 3 1.58992 4.76976 0.00000 -6.35968 0.00000 0.00000
2568 2569 11767 11768 3 1.58992 4.76976 0.00000 -6.35968 0.00000 0.00000
2568 2569 11767 11769 3 1.58992 4.76976 0.00000 -6.35968 0.00000 0.00000
2569 11767 11766 11765 3 1.78866 3.49154 0.53555 -5.81576 0.00000 0.00000
2569 11767 11766 11770 3 -1.26775 3.02085 1.74473 -3.49782 0.00000 0.00000
2574 2575 2584 2585 3 30.28798 -4.81160 -25.47638 0.00000 0.00000 0.00000 ; imides
2574 2595 2596 2597 3 33.20422 0.00000 -33.20422 0.00000 0.00000 0.00000 ; methylguanidinium ion
2574 2595 2596 2601 3 20.50160 0.00000 -20.50160 0.00000 0.00000 0.00000 ; imides
2575 2574 2595 2594 3 30.28798 -4.81160 -25.47638 0.00000 0.00000 0.00000 ; imides
2575 2574 2595 2596 3 33.20422 0.00000 -33.20422 0.00000 0.00000 0.00000 ; methylguanidinium ion
2575 2584 2585 2586 3 33.20422 0.00000 -33.20422 0.00000 0.00000 0.00000 ; methylguanidinium ion
2575 2584 2585 2594 3 30.28798 -4.81160 -25.47638 0.00000 0.00000 0.00000 ; imides
2576 2575 2584 2585 3 33.20422 0.00000 -33.20422 0.00000 0.00000 0.00000 ; methylguanidinium ion
2584 2575 2576 2577 3 33.20422 0.00000 -33.20422 0.00000 0.00000 0.00000 ; methylguanidinium ion
2584 2575 2576 2582 3 20.50160 0.00000 -20.50160 0.00000 0.00000 0.00000 ; imides
2584 2585 2594 2595 3 30.28798 -4.81160 -25.47638 0.00000 0.00000 0.00000 ; imides
2585 2594 2595 2574 3 30.28798 -4.81160 -25.47638 0.00000 0.00000 0.00000 ; imides
2585 2594 2595 2596 3 33.20422 0.00000 -33.20422 0.00000 0.00000 0.00000 ; methylguanidinium ion
2586 2585 2594 2595 3 33.20422 0.00000 -33.20422 0.00000 0.00000 0.00000 ; methylguanidinium ion
2594 2585 2586 2587 3 33.20422 0.00000 -33.20422 0.00000 0.00000 0.00000 ; methylguanidinium ion
2594 2585 2586 2592 3 20.50160 0.00000 -20.50160 0.00000 0.00000 0.00000 ; imides
2595 2574 2575 2576 3 33.20422 0.00000 -33.20422 0.00000 0.00000 0.00000 ; methylguanidinium ion
2595 2574 2575 2584 3 30.28798 -4.81160 -25.47638 0.00000 0.00000 0.00000 ; imides
2597 2598 6038 6037 3 1.58992 4.76976 0.00000 -6.35968 0.00000 0.00000
2597 2598 6038 6039 3 1.58992 4.76976 0.00000 -6.35968 0.00000 0.00000
2597 2598 6038 6040 3 1.58992 4.76976 0.00000 -6.35968 0.00000 0.00000
2598 6038 6037 6036 3 1.78866 3.49154 0.53555 -5.81576 0.00000 0.00000
2598 6038 6037 6041 3 -1.26775 3.02085 1.74473 -3.49782 0.00000 0.00000
2603 2604 2612 2613 3 30.28798 -4.81160 -25.47638 0.00000 0.00000 0.00000 ; imides
2603 2622 2623 2624 3 33.20422 0.00000 -33.20422 0.00000 0.00000 0.00000 ; methylguanidinium ion
2603 2622 2623 2628 3 20.50160 0.00000 -20.50160 0.00000 0.00000 0.00000 ; imides
2604 2603 2622 2621 3 30.28798 -4.81160 -25.47638 0.00000 0.00000 0.00000 ; imides
2604 2603 2622 2623 3 33.20422 0.00000 -33.20422 0.00000 0.00000 0.00000 ; methylguanidinium ion
2604 2612 2613 2614 3 33.20422 0.00000 -33.20422 0.00000 0.00000 0.00000 ; methylguanidinium ion
2604 2612 2613 2621 3 30.28798 -4.81160 -25.47638 0.00000 0.00000 0.00000 ; imides
2605 2604 2612 2613 3 33.20422 0.00000 -33.20422 0.00000 0.00000 0.00000 ; methylguanidinium ion
2606 2607 2633 2632 3 1.58992 4.76976 0.00000 -6.35968 0.00000 0.00000
2606 2607 2633 2634 3 1.58992 4.76976 0.00000 -6.35968 0.00000 0.00000
2606 2607 2633 2635 3 1.58992 4.76976 0.00000 -6.35968 0.00000 0.00000
2607 2633 2632 2631 3 1.78866 3.49154 0.53555 -5.81576 0.00000 0.00000
2607 2633 2632 2636 3 -1.26775 3.02085 1.74473 -3.49782 0.00000 0.00000
2612 2604 2605 2606 3 33.20422 0.00000 -33.20422 0.00000 0.00000 0.00000 ; methylguanidinium ion
2612 2604 2605 2610 3 20.50160 0.00000 -20.50160 0.00000 0.00000 0.00000 ; imides
2612 2613 2621 2622 3 30.28798 -4.81160 -25.47638 0.00000 0.00000 0.00000 ; imides
2613 2621 2622 2603 3 30.28798 -4.81160 -25.47638 0.00000 0.00000 0.00000 ; imides
2613 2621 2622 2623 3 33.20422 0.00000 -33.20422 0.00000 0.00000 0.00000 ; methylguanidinium ion
2614 2613 2621 2622 3 33.20422 0.00000 -33.20422 0.00000 0.00000 0.00000 ; methylguanidinium ion
2615 2616 4046 4045 3 1.58992 4.76976 0.00000 -6.35968 0.00000 0.00000
2615 2616 4046 4047 3 1.58992 4.76976 0.00000 -6.35968 0.00000 0.00000
2615 2616 4046 4048 3 1.58992 4.76976 0.00000 -6.35968 0.00000 0.00000
2616 4046 4045 4044 3 1.78866 3.49154 0.53555 -5.81576 0.00000 0.00000
2616 4046 4045 4049 3 -1.26775 3.02085 1.74473 -3.49782 0.00000 0.00000
2621 2613 2614 2615 3 33.20422 0.00000 -33.20422 0.00000 0.00000 0.00000 ; methylguanidinium ion
2621 2613 2614 2619 3 20.50160 0.00000 -20.50160 0.00000 0.00000 0.00000 ; imides
2622 2603 2604 2605 3 33.20422 0.00000 -33.20422 0.00000 0.00000 0.00000 ; methylguanidinium ion
2622 2603 2604 2612 3 30.28798 -4.81160 -25.47638 0.00000 0.00000 0.00000 ; imides
2624 2625 9274 9273 3 1.58992 4.76976 0.00000 -6.35968 0.00000 0.00000
2624 2625 9274 9275 3 1.58992 4.76976 0.00000 -6.35968 0.00000 0.00000
2624 2625 9274 9276 3 1.58992 4.76976 0.00000 -6.35968 0.00000 0.00000
2625 9274 9273 9272 3 1.78866 3.49154 0.53555 -5.81576 0.00000 0.00000
2625 9274 9273 9277 3 -1.26775 3.02085 1.74473 -3.49782 0.00000 0.00000
2630 2631 2638 2639 3 30.28798 -4.81160 -25.47638 0.00000 0.00000 0.00000 ; imides
2630 2648 2649 2650 3 33.20422 0.00000 -33.20422 0.00000 0.00000 0.00000 ; methylguanidinium ion
2630 2648 2649 2654 3 20.50160 0.00000 -20.50160 0.00000 0.00000 0.00000 ; imides
2631 2630 2648 2647 3 30.28798 -4.81160 -25.47638 0.00000 0.00000 0.00000 ; imides
2631 2630 2648 2649 3 33.20422 0.00000 -33.20422 0.00000 0.00000 0.00000 ; methylguanidinium ion
2631 2638 2639 2640 3 33.20422 0.00000 -33.20422 0.00000 0.00000 0.00000 ; methylguanidinium ion
2631 2638 2639 2647 3 30.28798 -4.81160 -25.47638 0.00000 0.00000 0.00000 ; imides
2632 2631 2638 2639 3 33.20422 0.00000 -33.20422 0.00000 0.00000 0.00000 ; methylguanidinium ion
2633 2607 2606 2605 3 1.58992 4.76976 0.00000 -6.35968 0.00000 0.00000
2633 2607 2606 2608 3 1.58992 4.76976 0.00000 -6.35968 0.00000 0.00000
2633 2607 2606 2609 3 1.58992 4.76976 0.00000 -6.35968 0.00000 0.00000
2638 2631 2632 2633 3 33.20422 0.00000 -33.20422 0.00000 0.00000 0.00000 ; methylguanidinium ion
2638 2631 2632 2636 3 20.50160 0.00000 -20.50160 0.00000 0.00000 0.00000 ; imides
2638 2639 2647 2648 3 30.28798 -4.81160 -25.47638 0.00000 0.00000 0.00000 ; imides
2639 2647 2648 2630 3 30.28798 -4.81160 -25.47638 0.00000 0.00000 0.00000 ; imides
2639 2647 2648 2649 3 33.20422 0.00000 -33.20422 0.00000 0.00000 0.00000 ; methylguanidinium ion
2640 2639 2647 2648 3 33.20422 0.00000 -33.20422 0.00000 0.00000 0.00000 ; methylguanidinium ion
2641 2642 12402 12401 3 1.58992 4.76976 0.00000 -6.35968 0.00000 0.00000
2641 2642 12402 12403 3 1.58992 4.76976 0.00000 -6.35968 0.00000 0.00000
2641 2642 12402 12404 3 1.58992 4.76976 0.00000 -6.35968 0.00000 0.00000
2642 12402 12401 12400 3 1.78866 3.49154 0.53555 -5.81576 0.00000 0.00000
2642 12402 12401 12405 3 -1.26775 3.02085 1.74473 -3.49782 0.00000 0.00000
2647 2639 2640 2641 3 33.20422 0.00000 -33.20422 0.00000 0.00000 0.00000 ; methylguanidinium ion
2647 2639 2640 2645 3 20.50160 0.00000 -20.50160 0.00000 0.00000 0.00000 ; imides
2648 2630 2631 2632 3 33.20422 0.00000 -33.20422 0.00000 0.00000 0.00000 ; methylguanidinium ion
2648 2630 2631 2638 3 30.28798 -4.81160 -25.47638 0.00000 0.00000 0.00000 ; imides
2650 2651 11940 11939 3 1.58992 4.76976 0.00000 -6.35968 0.00000 0.00000
2650 2651 11940 11941 3 1.58992 4.76976 0.00000 -6.35968 0.00000 0.00000
2650 2651 11940 11942 3 1.58992 4.76976 0.00000 -6.35968 0.00000 0.00000
2651 11940 11939 11938 3 1.78866 3.49154 0.53555 -5.81576 0.00000 0.00000
2651 11940 11939 11943 3 -1.26775 3.02085 1.74473 -3.49782 0.00000 0.00000
2656 2657 2665 2666 3 30.28798 -4.81160 -25.47638 0.00000 0.00000 0.00000 ; imides
2656 2675 2676 2677 3 33.20422 0.00000 -33.20422 0.00000 0.00000 0.00000 ; methylguanidinium ion
2656 2675 2676 2682 3 20.50160 0.00000 -20.50160 0.00000 0.00000 0.00000 ; imides
2657 2656 2675 2674 3 30.28798 -4.81160 -25.47638 0.00000 0.00000 0.00000 ; imides
2657 2656 2675 2676 3 33.20422 0.00000 -33.20422 0.00000 0.00000 0.00000 ; methylguanidinium ion
2657 2665 2666 2667 3 33.20422 0.00000 -33.20422 0.00000 0.00000 0.00000 ; methylguanidinium ion
2657 2665 2666 2674 3 30.28798 -4.81160 -25.47638 0.00000 0.00000 0.00000 ; imides
2658 2657 2665 2666 3 33.20422 0.00000 -33.20422 0.00000 0.00000 0.00000 ; methylguanidinium ion
2659 2660 6022 6021 3 1.58992 4.76976 0.00000 -6.35968 0.00000 0.00000
2659 2660 6022 6023 3 1.58992 4.76976 0.00000 -6.35968 0.00000 0.00000
2659 2660 6022 6024 3 1.58992 4.76976 0.00000 -6.35968 0.00000 0.00000
2660 6022 6021 6020 3 1.78866 3.49154 0.53555 -5.81576 0.00000 0.00000
2660 6022 6021 6025 3 -1.26775 3.02085 1.74473 -3.49782 0.00000 0.00000
2665 2657 2658 2659 3 33.20422 0.00000 -33.20422 0.00000 0.00000 0.00000 ; methylguanidinium ion
2665 2657 2658 2663 3 20.50160 0.00000 -20.50160 0.00000 0.00000 0.00000 ; imides
2665 2666 2674 2675 3 30.28798 -4.81160 -25.47638 0.00000 0.00000 0.00000 ; imides
2666 2674 2675 2656 3 30.28798 -4.81160 -25.47638 0.00000 0.00000 0.00000 ; imides
2666 2674 2675 2676 3 33.20422 0.00000 -33.20422 0.00000 0.00000 0.00000 ; methylguanidinium ion
2667 2666 2674 2675 3 33.20422 0.00000 -33.20422 0.00000 0.00000 0.00000 ; methylguanidinium ion
2668 2669 8431 8430 3 1.58992 4.76976 0.00000 -6.35968 0.00000 0.00000
2668 2669 8431 8432 3 1.58992 4.76976 0.00000 -6.35968 0.00000 0.00000
2668 2669 8431 8433 3 1.58992 4.76976 0.00000 -6.35968 0.00000 0.00000
2669 8431 8430 8429 3 1.78866 3.49154 0.53555 -5.81576 0.00000 0.00000
2669 8431 8430 8434 3 -1.26775 3.02085 1.74473 -3.49782 0.00000 0.00000
2674 2666 2667 2668 3 33.20422 0.00000 -33.20422 0.00000 0.00000 0.00000 ; methylguanidinium ion
2674 2666 2667 2672 3 20.50160 0.00000 -20.50160 0.00000 0.00000 0.00000 ; imides
2675 2656 2657 2658 3 33.20422 0.00000 -33.20422 0.00000 0.00000 0.00000 ; methylguanidinium ion
2675 2656 2657 2665 3 30.28798 -4.81160 -25.47638 0.00000 0.00000 0.00000 ; imides
2684 2685 2693 2694 3 30.28798 -4.81160 -25.47638 0.00000 0.00000 0.00000 ; imides
2684 2702 2703 2704 3 33.20422 0.00000 -33.20422 0.00000 0.00000 0.00000 ; methylguanidinium ion
2684 2702 2703 2707 3 20.50160 0.00000 -20.50160 0.00000 0.00000 0.00000 ; imides
2685 2684 2702 2701 3 30.28798 -4.81160 -25.47638 0.00000 0.00000 0.00000 ; imides
2685 2684 2702 2703 3 33.20422 0.00000 -33.20422 0.00000 0.00000 0.00000 ; methylguanidinium ion
2685 2693 2694 2695 3 33.20422 0.00000 -33.20422 0.00000 0.00000 0.00000 ; methylguanidinium ion
2685 2693 2694 2701 3 30.28798 -4.81160 -25.47638 0.00000 0.00000 0.00000 ; imides
2686 2685 2693 2694 3 33.20422 0.00000 -33.20422 0.00000 0.00000 0.00000 ; methylguanidinium ion
2687 2688 12476 12475 3 1.58992 4.76976 0.00000 -6.35968 0.00000 0.00000
2687 2688 12476 12477 3 1.58992 4.76976 0.00000 -6.35968 0.00000 0.00000
2687 2688 12476 12478 3 1.58992 4.76976 0.00000 -6.35968 0.00000 0.00000
2688 12476 12475 12474 3 1.78866 3.49154 0.53555 -5.81576 0.00000 0.00000
2688 12476 12475 12479 3 -1.26775 3.02085 1.74473 -3.49782 0.00000 0.00000
2693 2685 2686 2687 3 33.20422 0.00000 -33.20422 0.00000 0.00000 0.00000 ; methylguanidinium ion
2693 2685 2686 2691 3 20.50160 0.00000 -20.50160 0.00000 0.00000 0.00000 ; imides
2693 2694 2701 2702 3 30.28798 -4.81160 -25.47638 0.00000 0.00000 0.00000 ; imides
2694 2701 2702 2684 3 30.28798 -4.81160 -25.47638 0.00000 0.00000 0.00000 ; imides
2694 2701 2702 2703 3 33.20422 0.00000 -33.20422 0.00000 0.00000 0.00000 ; methylguanidinium ion
2695 2694 2701 2702 3 33.20422 0.00000 -33.20422 0.00000 0.00000 0.00000 ; methylguanidinium ion
2696 117 116 115 3 1.58992 4.76976 0.00000 -6.35968 0.00000 0.00000
2696 117 116 118 3 1.58992 4.76976 0.00000 -6.35968 0.00000 0.00000
2696 117 116 119 3 1.58992 4.76976 0.00000 -6.35968 0.00000 0.00000
2701 2694 2695 2696 3 33.20422 0.00000 -33.20422 0.00000 0.00000 0.00000 ; methylguanidinium ion
2701 2694 2695 2699 3 20.50160 0.00000 -20.50160 0.00000 0.00000 0.00000 ; imides
2702 2684 2685 2686 3 33.20422 0.00000 -33.20422 0.00000 0.00000 0.00000 ; methylguanidinium ion
2702 2684 2685 2693 3 30.28798 -4.81160 -25.47638 0.00000 0.00000 0.00000 ; imides
2704 1693 1692 1691 3 1.58992 4.76976 0.00000 -6.35968 0.00000 0.00000
2704 1693 1692 1694 3 1.58992 4.76976 0.00000 -6.35968 0.00000 0.00000
2704 1693 1692 1695 3 1.58992 4.76976 0.00000 -6.35968 0.00000 0.00000
2709 2710 2718 2719 3 30.28798 -4.81160 -25.47638 0.00000 0.00000 0.00000 ; imides
2709 2728 2729 2730 3 33.20422 0.00000 -33.20422 0.00000 0.00000 0.00000 ; methylguanidinium ion
2709 2728 2729 2733 3 20.50160 0.00000 -20.50160 0.00000 0.00000 0.00000 ; imides
2710 2709 2728 2727 3 30.28798 -4.81160 -25.47638 0.00000 0.00000 0.00000 ; imides
2710 2709 2728 2729 3 33.20422 0.00000 -33.20422 0.00000 0.00000 0.00000 ; methylguanidinium ion
2710 2718 2719 2720 3 33.20422 0.00000 -33.20422 0.00000 0.00000 0.00000 ; methylguanidinium ion
2710 2718 2719 2727 3 30.28798 -4.81160 -25.47638 0.00000 0.00000 0.00000 ; imides
2711 2710 2718 2719 3 33.20422 0.00000 -33.20422 0.00000 0.00000 0.00000 ; methylguanidinium ion
2712 2713 10276 10275 3 1.58992 4.76976 0.00000 -6.35968 0.00000 0.00000
2712 2713 10276 10277 3 1.58992 4.76976 0.00000 -6.35968 0.00000 0.00000
2712 2713 10276 10278 3 1.58992 4.76976 0.00000 -6.35968 0.00000 0.00000
2713 10276 10275 10274 3 1.78866 3.49154 0.53555 -5.81576 0.00000 0.00000
2713 10276 10275 10279 3 -1.26775 3.02085 1.74473 -3.49782 0.00000 0.00000
2718 2710 2711 2712 3 33.20422 0.00000 -33.20422 0.00000 0.00000 0.00000 ; methylguanidinium ion
2718 2710 2711 2716 3 20.50160 0.00000 -20.50160 0.00000 0.00000 0.00000 ; imides
2718 2719 2727 2728 3 30.28798 -4.81160 -25.47638 0.00000 0.00000 0.00000 ; imides
2719 2727 2728 2709 3 30.28798 -4.81160 -25.47638 0.00000 0.00000 0.00000 ; imides
2719 2727 2728 2729 3 33.20422 0.00000 -33.20422 0.00000 0.00000 0.00000 ; methylguanidinium ion
2720 2719 2727 2728 3 33.20422 0.00000 -33.20422 0.00000 0.00000 0.00000 ; methylguanidinium ion
2721 2722 5900 5899 3 1.58992 4.76976 0.00000 -6.35968 0.00000 0.00000
2721 2722 5900 5901 3 1.58992 4.76976 0.00000 -6.35968 0.00000 0.00000
2721 2722 5900 5902 3 1.58992 4.76976 0.00000 -6.35968 0.00000 0.00000
2722 5900 5899 5898 3 1.78866 3.49154 0.53555 -5.81576 0.00000 0.00000
2722 5900 5899 5903 3 -1.26775 3.02085 1.74473 -3.49782 0.00000 0.00000
2727 2719 2720 2721 3 33.20422 0.00000 -33.20422 0.00000 0.00000 0.00000 ; methylguanidinium ion
2727 2719 2720 2725 3 20.50160 0.00000 -20.50160 0.00000 0.00000 0.00000 ; imides
2728 2709 2710 2711 3 33.20422 0.00000 -33.20422 0.00000 0.00000 0.00000 ; methylguanidinium ion
2728 2709 2710 2718 3 30.28798 -4.81160 -25.47638 0.00000 0.00000 0.00000 ; imides
2730 2551 2550 2549 3 1.58992 4.76976 0.00000 -6.35968 0.00000 0.00000
2730 2551 2550 2552 3 1.58992 4.76976 0.00000 -6.35968 0.00000 0.00000
2730 2551 2550 2553 3 1.58992 4.76976 0.00000 -6.35968 0.00000 0.00000
2735 2736 2744 2745 3 30.28798 -4.81160 -25.47638 0.00000 0.00000 0.00000 ; imides
2735 2754 2755 2756 3 33.20422 0.00000 -33.20422 0.00000 0.00000 0.00000 ; methylguanidinium ion
2735 2754 2755 2761 3 20.50160 0.00000 -20.50160 0.00000 0.00000 0.00000 ; imides
2736 2735 2754 2753 3 30.28798 -4.81160 -25.47638 0.00000 0.00000 0.00000 ; imides
2736 2735 2754 2755 3 33.20422 0.00000 -33.20422 0.00000 0.00000 0.00000 ; methylguanidinium ion
2736 2744 2745 2746 3 33.20422 0.00000 -33.20422 0.00000 0.00000 0.00000 ; methylguanidinium ion
2736 2744 2745 2753 3 30.28798 -4.81160 -25.47638 0.00000 0.00000 0.00000 ; imides
2737 2736 2744 2745 3 33.20422 0.00000 -33.20422 0.00000 0.00000 0.00000 ; methylguanidinium ion
2738 2739 4542 4541 3 1.58992 4.76976 0.00000 -6.35968 0.00000 0.00000
2738 2739 4542 4543 3 1.58992 4.76976 0.00000 -6.35968 0.00000 0.00000
2738 2739 4542 4544 3 1.58992 4.76976 0.00000 -6.35968 0.00000 0.00000
2739 4542 4541 4540 3 1.78866 3.49154 0.53555 -5.81576 0.00000 0.00000
2739 4542 4541 4545 3 -1.26775 3.02085 1.74473 -3.49782 0.00000 0.00000
2744 2736 2737 2738 3 33.20422 0.00000 -33.20422 0.00000 0.00000 0.00000 ; methylguanidinium ion
2744 2736 2737 2742 3 20.50160 0.00000 -20.50160 0.00000 0.00000 0.00000 ; imides
2744 2745 2753 2754 3 30.28798 -4.81160 -25.47638 0.00000 0.00000 0.00000 ; imides
2745 2753 2754 2735 3 30.28798 -4.81160 -25.47638 0.00000 0.00000 0.00000 ; imides
2745 2753 2754 2755 3 33.20422 0.00000 -33.20422 0.00000 0.00000 0.00000 ; methylguanidinium ion
2746 2745 2753 2754 3 33.20422 0.00000 -33.20422 0.00000 0.00000 0.00000 ; methylguanidinium ion
2747 2748 6612 6611 3 1.58992 4.76976 0.00000 -6.35968 0.00000 0.00000
2747 2748 6612 6613 3 1.58992 4.76976 0.00000 -6.35968 0.00000 0.00000
2747 2748 6612 6614 3 1.58992 4.76976 0.00000 -6.35968 0.00000 0.00000
2748 6612 6611 6610 3 1.78866 3.49154 0.53555 -5.81576 0.00000 0.00000
2748 6612 6611 6615 3 -1.26775 3.02085 1.74473 -3.49782 0.00000 0.00000
2753 2745 2746 2747 3 33.20422 0.00000 -33.20422 0.00000 0.00000 0.00000 ; methylguanidinium ion
2753 2745 2746 2751 3 20.50160 0.00000 -20.50160 0.00000 0.00000 0.00000 ; imides
2754 2735 2736 2737 3 33.20422 0.00000 -33.20422 0.00000 0.00000 0.00000 ; methylguanidinium ion
2754 2735 2736 2744 3 30.28798 -4.81160 -25.47638 0.00000 0.00000 0.00000 ; imides
2763 2764 2772 2773 3 30.28798 -4.81160 -25.47638 0.00000 0.00000 0.00000 ; imides
2763 2782 2783 2784 3 33.20422 0.00000 -33.20422 0.00000 0.00000 0.00000 ; methylguanidinium ion
2763 2782 2783 2787 3 20.50160 0.00000 -20.50160 0.00000 0.00000 0.00000 ; imides
2764 2763 2782 2781 3 30.28798 -4.81160 -25.47638 0.00000 0.00000 0.00000 ; imides
2764 2763 2782 2783 3 33.20422 0.00000 -33.20422 0.00000 0.00000 0.00000 ; methylguanidinium ion
2764 2772 2773 2774 3 33.20422 0.00000 -33.20422 0.00000 0.00000 0.00000 ; methylguanidinium ion
2764 2772 2773 2781 3 30.28798 -4.81160 -25.47638 0.00000 0.00000 0.00000 ; imides
2765 2764 2772 2773 3 33.20422 0.00000 -33.20422 0.00000 0.00000 0.00000 ; methylguanidinium ion
2766 2767 7874 7873 3 1.58992 4.76976 0.00000 -6.35968 0.00000 0.00000
2766 2767 7874 7875 3 1.58992 4.76976 0.00000 -6.35968 0.00000 0.00000
2766 2767 7874 7876 3 1.58992 4.76976 0.00000 -6.35968 0.00000 0.00000
2767 7874 7873 7872 3 1.78866 3.49154 0.53555 -5.81576 0.00000 0.00000
2767 7874 7873 7877 3 -1.26775 3.02085 1.74473 -3.49782 0.00000 0.00000
2772 2764 2765 2766 3 33.20422 0.00000 -33.20422 0.00000 0.00000 0.00000 ; methylguanidinium ion
2772 2764 2765 2770 3 20.50160 0.00000 -20.50160 0.00000 0.00000 0.00000 ; imides
2772 2773 2781 2782 3 30.28798 -4.81160 -25.47638 0.00000 0.00000 0.00000 ; imides
2773 2781 2782 2763 3 30.28798 -4.81160 -25.47638 0.00000 0.00000 0.00000 ; imides
2773 2781 2782 2783 3 33.20422 0.00000 -33.20422 0.00000 0.00000 0.00000 ; methylguanidinium ion
2774 2773 2781 2782 3 33.20422 0.00000 -33.20422 0.00000 0.00000 0.00000 ; methylguanidinium ion
2775 2776 9870 9869 3 1.58992 4.76976 0.00000 -6.35968 0.00000 0.00000
2775 2776 9870 9871 3 1.58992 4.76976 0.00000 -6.35968 0.00000 0.00000
2775 2776 9870 9872 3 1.58992 4.76976 0.00000 -6.35968 0.00000 0.00000
2776 9870 9869 9868 3 1.78866 3.49154 0.53555 -5.81576 0.00000 0.00000
2776 9870 9869 9873 3 -1.26775 3.02085 1.74473 -3.49782 0.00000 0.00000
2781 2773 2774 2775 3 33.20422 0.00000 -33.20422 0.00000 0.00000 0.00000 ; methylguanidinium ion
2781 2773 2774 2779 3 20.50160 0.00000 -20.50160 0.00000 0.00000 0.00000 ; imides
2782 2763 2764 2765 3 33.20422 0.00000 -33.20422 0.00000 0.00000 0.00000 ; methylguanidinium ion
2782 2763 2764 2772 3 30.28798 -4.81160 -25.47638 0.00000 0.00000 0.00000 ; imides
2784 654 653 652 3 1.58992 4.76976 0.00000 -6.35968 0.00000 0.00000
2784 654 653 655 3 1.58992 4.76976 0.00000 -6.35968 0.00000 0.00000
2784 654 653 656 3 1.58992 4.76976 0.00000 -6.35968 0.00000 0.00000
2789 2790 2798 2799 3 30.28798 -4.81160 -25.47638 0.00000 0.00000 0.00000 ; imides
2789 2808 2809 2810 3 33.20422 0.00000 -33.20422 0.00000 0.00000 0.00000 ; methylguanidinium ion
2789 2808 2809 2814 3 20.50160 0.00000 -20.50160 0.00000 0.00000 0.00000 ; imides
2790 2789 2808 2807 3 30.28798 -4.81160 -25.47638 0.00000 0.00000 0.00000 ; imides
2790 2789 2808 2809 3 33.20422 0.00000 -33.20422 0.00000 0.00000 0.00000 ; methylguanidinium ion
2790 2798 2799 2800 3 33.20422 0.00000 -33.20422 0.00000 0.00000 0.00000 ; methylguanidinium ion
2790 2798 2799 2807 3 30.28798 -4.81160 -25.47638 0.00000 0.00000 0.00000 ; imides
2791 2790 2798 2799 3 33.20422 0.00000 -33.20422 0.00000 0.00000 0.00000 ; methylguanidinium ion
2792 2793 8322 8321 3 1.58992 4.76976 0.00000 -6.35968 0.00000 0.00000
2792 2793 8322 8323 3 1.58992 4.76976 0.00000 -6.35968 0.00000 0.00000
2792 2793 8322 8324 3 1.58992 4.76976 0.00000 -6.35968 0.00000 0.00000
2793 8322 8321 8320 3 1.78866 3.49154 0.53555 -5.81576 0.00000 0.00000
2793 8322 8321 8325 3 -1.26775 3.02085 1.74473 -3.49782 0.00000 0.00000
2798 2790 2791 2792 3 33.20422 0.00000 -33.20422 0.00000 0.00000 0.00000 ; methylguanidinium ion
2798 2790 2791 2796 3 20.50160 0.00000 -20.50160 0.00000 0.00000 0.00000 ; imides
2798 2799 2807 2808 3 30.28798 -4.81160 -25.47638 0.00000 0.00000 0.00000 ; imides
2799 2807 2808 2789 3 30.28798 -4.81160 -25.47638 0.00000 0.00000 0.00000 ; imides
2799 2807 2808 2809 3 33.20422 0.00000 -33.20422 0.00000 0.00000 0.00000 ; methylguanidinium ion
2800 2799 2807 2808 3 33.20422 0.00000 -33.20422 0.00000 0.00000 0.00000 ; methylguanidinium ion
2801 2802 8507 8506 3 1.58992 4.76976 0.00000 -6.35968 0.00000 0.00000
2801 2802 8507 8508 3 1.58992 4.76976 0.00000 -6.35968 0.00000 0.00000
2801 2802 8507 8509 3 1.58992 4.76976 0.00000 -6.35968 0.00000 0.00000
2802 8507 8506 8505 3 1.78866 3.49154 0.53555 -5.81576 0.00000 0.00000
2802 8507 8506 8510 3 -1.26775 3.02085 1.74473 -3.49782 0.00000 0.00000
2807 2799 2800 2801 3 33.20422 0.00000 -33.20422 0.00000 0.00000 0.00000 ; methylguanidinium ion
2807 2799 2800 2805 3 20.50160 0.00000 -20.50160 0.00000 0.00000 0.00000 ; imides
2808 2789 2790 2791 3 33.20422 0.00000 -33.20422 0.00000 0.00000 0.00000 ; methylguanidinium ion
2808 2789 2790 2798 3 30.28798 -4.81160 -25.47638 0.00000 0.00000 0.00000 ; imides
2810 2811 6960 6959 3 1.58992 4.76976 0.00000 -6.35968 0.00000 0.00000
2810 2811 6960 6961 3 1.58992 4.76976 0.00000 -6.35968 0.00000 0.00000
2810 2811 6960 6962 3 1.58992 4.76976 0.00000 -6.35968 0.00000 0.00000
2811 6960 6959 6958 3 1.78866 3.49154 0.53555 -5.81576 0.00000 0.00000
2811 6960 6959 6963 3 -1.26775 3.02085 1.74473 -3.49782 0.00000 0.00000
2816 2817 2825 2826 3 30.28798 -4.81160 -25.47638 0.00000 0.00000 0.00000 ; imides
2816 2834 2835 2836 3 33.20422 0.00000 -33.20422 0.00000 0.00000 0.00000 ; methylguanidinium ion
2816 2834 2835 2840 3 20.50160 0.00000 -20.50160 0.00000 0.00000 0.00000 ; imides
2817 2816 2834 2833 3 30.28798 -4.81160 -25.47638 0.00000 0.00000 0.00000 ; imides
2817 2816 2834 2835 3 33.20422 0.00000 -33.20422 0.00000 0.00000 0.00000 ; methylguanidinium ion
2817 2825 2826 2827 3 33.20422 0.00000 -33.20422 0.00000 0.00000 0.00000 ; methylguanidinium ion
2817 2825 2826 2833 3 30.28798 -4.81160 -25.47638 0.00000 0.00000 0.00000 ; imides
2818 2817 2825 2826 3 33.20422 0.00000 -33.20422 0.00000 0.00000 0.00000 ; methylguanidinium ion
2819 2820 5338 5337 3 1.58992 4.76976 0.00000 -6.35968 0.00000 0.00000
2819 2820 5338 5339 3 1.58992 4.76976 0.00000 -6.35968 0.00000 0.00000
2819 2820 5338 5340 3 1.58992 4.76976 0.00000 -6.35968 0.00000 0.00000
2820 5338 5337 5336 3 1.78866 3.49154 0.53555 -5.81576 0.00000 0.00000
2820 5338 5337 5341 3 -1.26775 3.02085 1.74473 -3.49782 0.00000 0.00000
2825 2817 2818 2819 3 33.20422 0.00000 -33.20422 0.00000 0.00000 0.00000 ; methylguanidinium ion
2825 2817 2818 2823 3 20.50160 0.00000 -20.50160 0.00000 0.00000 0.00000 ; imides
2825 2826 2833 2834 3 30.28798 -4.81160 -25.47638 0.00000 0.00000 0.00000 ; imides
2826 2833 2834 2816 3 30.28798 -4.81160 -25.47638 0.00000 0.00000 0.00000 ; imides
2826 2833 2834 2835 3 33.20422 0.00000 -33.20422 0.00000 0.00000 0.00000 ; methylguanidinium ion
2827 2826 2833 2834 3 33.20422 0.00000 -33.20422 0.00000 0.00000 0.00000 ; methylguanidinium ion
2828 1416 1415 1414 3 1.58992 4.76976 0.00000 -6.35968 0.00000 0.00000
2828 1416 1415 1417 3 1.58992 4.76976 0.00000 -6.35968 0.00000 0.00000
2828 1416 1415 1418 3 1.58992 4.76976 0.00000 -6.35968 0.00000 0.00000
2833 2826 2827 2828 3 33.20422 0.00000 -33.20422 0.00000 0.00000 0.00000 ; methylguanidinium ion
2833 2826 2827 2831 3 20.50160 0.00000 -20.50160 0.00000 0.00000 0.00000 ; imides
2834 2816 2817 2818 3 33.20422 0.00000 -33.20422 0.00000 0.00000 0.00000 ; methylguanidinium ion
2834 2816 2817 2825 3 30.28798 -4.81160 -25.47638 0.00000 0.00000 0.00000 ; imides
2836 2837 4550 4549 3 1.58992 4.76976 0.00000 -6.35968 0.00000 0.00000
2836 2837 4550 4551 3 1.58992 4.76976 0.00000 -6.35968 0.00000 0.00000
2836 2837 4550 4552 3 1.58992 4.76976 0.00000 -6.35968 0.00000 0.00000
2837 4550 4549 4548 3 1.78866 3.49154 0.53555 -5.81576 0.00000 0.00000
2837 4550 4549 4553 3 -1.26775 3.02085 1.74473 -3.49782 0.00000 0.00000
2842 2843 2851 2852 3 30.28798 -4.81160 -25.47638 0.00000 0.00000 0.00000 ; imides
2842 2860 2861 2862 3 33.20422 0.00000 -33.20422 0.00000 0.00000 0.00000 ; methylguanidinium ion
2842 2860 2861 2866 3 20.50160 0.00000 -20.50160 0.00000 0.00000 0.00000 ; imides
2843 2842 2860 2859 3 30.28798 -4.81160 -25.47638 0.00000 0.00000 0.00000 ; imides
2843 2842 2860 2861 3 33.20422 0.00000 -33.20422 0.00000 0.00000 0.00000 ; methylguanidinium ion
2843 2851 2852 2853 3 33.20422 0.00000 -33.20422 0.00000 0.00000 0.00000 ; methylguanidinium ion
2843 2851 2852 2859 3 30.28798 -4.81160 -25.47638 0.00000 0.00000 0.00000 ; imides
2844 2843 2851 2852 3 33.20422 0.00000 -33.20422 0.00000 0.00000 0.00000 ; methylguanidinium ion
2845 2846 5043 5042 3 1.58992 4.76976 0.00000 -6.35968 0.00000 0.00000
2845 2846 5043 5044 3 1.58992 4.76976 0.00000 -6.35968 0.00000 0.00000
2845 2846 5043 5045 3 1.58992 4.76976 0.00000 -6.35968 0.00000 0.00000
2846 5043 5042 5041 3 1.78866 3.49154 0.53555 -5.81576 0.00000 0.00000
2846 5043 5042 5046 3 -1.26775 3.02085 1.74473 -3.49782 0.00000 0.00000
2851 2843 2844 2845 3 33.20422 0.00000 -33.20422 0.00000 0.00000 0.00000 ; methylguanidinium ion
2851 2843 2844 2849 3 20.50160 0.00000 -20.50160 0.00000 0.00000 0.00000 ; imides
2851 2852 2859 2860 3 30.28798 -4.81160 -25.47638 0.00000 0.00000 0.00000 ; imides
2852 2859 2860 2842 3 30.28798 -4.81160 -25.47638 0.00000 0.00000 0.00000 ; imides
2852 2859 2860 2861 3 33.20422 0.00000 -33.20422 0.00000 0.00000 0.00000 ; methylguanidinium ion
2853 2852 2859 2860 3 33.20422 0.00000 -33.20422 0.00000 0.00000 0.00000 ; methylguanidinium ion
2854 1951 1950 1949 3 1.58992 4.76976 0.00000 -6.35968 0.00000 0.00000
2854 1951 1950 1952 3 1.58992 4.76976 0.00000 -6.35968 0.00000 0.00000
2854 1951 1950 1953 3 1.58992 4.76976 0.00000 -6.35968 0.00000 0.00000
2859 2852 2853 2854 3 33.20422 0.00000 -33.20422 0.00000 0.00000 0.00000 ; methylguanidinium ion
2859 2852 2853 2857 3 20.50160 0.00000 -20.50160 0.00000 0.00000 0.00000 ; imides
2860 2842 2843 2844 3 33.20422 0.00000 -33.20422 0.00000 0.00000 0.00000 ; methylguanidinium ion
2860 2842 2843 2851 3 30.28798 -4.81160 -25.47638 0.00000 0.00000 0.00000 ; imides
2862 2863 7427 7426 3 1.58992 4.76976 0.00000 -6.35968 0.00000 0.00000
2862 2863 7427 7428 3 1.58992 4.76976 0.00000 -6.35968 0.00000 0.00000
2862 2863 7427 7429 3 1.58992 4.76976 0.00000 -6.35968 0.00000 0.00000
2863 7427 7426 7425 3 1.78866 3.49154 0.53555 -5.81576 0.00000 0.00000
2863 7427 7426 7430 3 -1.26775 3.02085 1.74473 -3.49782 0.00000 0.00000
2868 2869 2876 2877 3 30.28798 -4.81160 -25.47638 0.00000 0.00000 0.00000 ; imides
2868 2885 2886 2887 3 33.20422 0.00000 -33.20422 0.00000 0.00000 0.00000 ; methylguanidinium ion
2868 2885 2886 2890 3 20.50160 0.00000 -20.50160 0.00000 0.00000 0.00000 ; imides
2869 2868 2885 2884 3 30.28798 -4.81160 -25.47638 0.00000 0.00000 0.00000 ; imides
2869 2868 2885 2886 3 33.20422 0.00000 -33.20422 0.00000 0.00000 0.00000 ; methylguanidinium ion
2869 2876 2877 2878 3 33.20422 0.00000 -33.20422 0.00000 0.00000 0.00000 ; methylguanidinium ion
2869 2876 2877 2884 3 30.28798 -4.81160 -25.47638 0.00000 0.00000 0.00000 ; imides
2870 2869 2876 2877 3 33.20422 0.00000 -33.20422 0.00000 0.00000 0.00000 ; methylguanidinium ion
2871 2507 2506 2505 3 1.58992 4.76976 0.00000 -6.35968 0.00000 0.00000
2871 2507 2506 2508 3 1.58992 4.76976 0.00000 -6.35968 0.00000 0.00000
2871 2507 2506 2509 3 1.58992 4.76976 0.00000 -6.35968 0.00000 0.00000
2876 2869 2870 2871 3 33.20422 0.00000 -33.20422 0.00000 0.00000 0.00000 ; methylguanidinium ion
2876 2869 2870 2874 3 20.50160 0.00000 -20.50160 0.00000 0.00000 0.00000 ; imides
2876 2877 2884 2885 3 30.28798 -4.81160 -25.47638 0.00000 0.00000 0.00000 ; imides
2877 2884 2885 2868 3 30.28798 -4.81160 -25.47638 0.00000 0.00000 0.00000 ; imides
2877 2884 2885 2886 3 33.20422 0.00000 -33.20422 0.00000 0.00000 0.00000 ; methylguanidinium ion
2878 2877 2884 2885 3 33.20422 0.00000 -33.20422 0.00000 0.00000 0.00000 ; methylguanidinium ion
2879 1379 1378 1377 3 1.58992 4.76976 0.00000 -6.35968 0.00000 0.00000
2879 1379 1378 1380 3 1.58992 4.76976 0.00000 -6.35968 0.00000 0.00000
2879 1379 1378 1381 3 1.58992 4.76976 0.00000 -6.35968 0.00000 0.00000
2884 2877 2878 2879 3 33.20422 0.00000 -33.20422 0.00000 0.00000 0.00000 ; methylguanidinium ion
2884 2877 2878 2882 3 20.50160 0.00000 -20.50160 0.00000 0.00000 0.00000 ; imides
2885 2868 2869 2870 3 33.20422 0.00000 -33.20422 0.00000 0.00000 0.00000 ; methylguanidinium ion
2885 2868 2869 2876 3 30.28798 -4.81160 -25.47638 0.00000 0.00000 0.00000 ; imides
2887 2480 2479 2478 3 1.58992 4.76976 0.00000 -6.35968 0.00000 0.00000
2887 2480 2479 2481 3 1.58992 4.76976 0.00000 -6.35968 0.00000 0.00000
2887 2480 2479 2482 3 1.58992 4.76976 0.00000 -6.35968 0.00000 0.00000
2892 2893 2901 2902 3 30.28798 -4.81160 -25.47638 0.00000 0.00000 0.00000 ; imides
2892 2910 2911 2912 3 33.20422 0.00000 -33.20422 0.00000 0.00000 0.00000 ; methylguanidinium ion
2892 2910 2911 2916 3 20.50160 0.00000 -20.50160 0.00000 0.00000 0.00000 ; imides
2893 2892 2910 2909 3 30.28798 -4.81160 -25.47638 0.00000 0.00000 0.00000 ; imides
2893 2892 2910 2911 3 33.20422 0.00000 -33.20422 0.00000 0.00000 0.00000 ; methylguanidinium ion
2893 2901 2902 2903 3 33.20422 0.00000 -33.20422 0.00000 0.00000 0.00000 ; methylguanidinium ion
2893 2901 2902 2909 3 30.28798 -4.81160 -25.47638 0.00000 0.00000 0.00000 ; imides
2894 2893 2901 2902 3 33.20422 0.00000 -33.20422 0.00000 0.00000 0.00000 ; methylguanidinium ion
2895 2896 6653 6652 3 1.58992 4.76976 0.00000 -6.35968 0.00000 0.00000
2895 2896 6653 6654 3 1.58992 4.76976 0.00000 -6.35968 0.00000 0.00000
2895 2896 6653 6655 3 1.58992 4.76976 0.00000 -6.35968 0.00000 0.00000
2896 6653 6652 6651 3 1.78866 3.49154 0.53555 -5.81576 0.00000 0.00000
2896 6653 6652 6656 3 -1.26775 3.02085 1.74473 -3.49782 0.00000 0.00000
2901 2893 2894 2895 3 33.20422 0.00000 -33.20422 0.00000 0.00000 0.00000 ; methylguanidinium ion
2901 2893 2894 2899 3 20.50160 0.00000 -20.50160 0.00000 0.00000 0.00000 ; imides
2901 2902 2909 2910 3 30.28798 -4.81160 -25.47638 0.00000 0.00000 0.00000 ; imides
2902 2909 2910 2892 3 30.28798 -4.81160 -25.47638 0.00000 0.00000 0.00000 ; imides
2902 2909 2910 2911 3 33.20422 0.00000 -33.20422 0.00000 0.00000 0.00000 ; methylguanidinium ion
2903 2902 2909 2910 3 33.20422 0.00000 -33.20422 0.00000 0.00000 0.00000 ; methylguanidinium ion
2904 2005 2004 2003 3 1.58992 4.76976 0.00000 -6.35968 0.00000 0.00000
2904 2005 2004 2006 3 1.58992 4.76976 0.00000 -6.35968 0.00000 0.00000
2904 2005 2004 2007 3 1.58992 4.76976 0.00000 -6.35968 0.00000 0.00000
2909 2902 2903 2904 3 33.20422 0.00000 -33.20422 0.00000 0.00000 0.00000 ; methylguanidinium ion
2909 2902 2903 2907 3 20.50160 0.00000 -20.50160 0.00000 0.00000 0.00000 ; imides
2910 2892 2893 2894 3 33.20422 0.00000 -33.20422 0.00000 0.00000 0.00000 ; methylguanidinium ion
2910 2892 2893 2901 3 30.28798 -4.81160 -25.47638 0.00000 0.00000 0.00000 ; imides
2912 2913 6637 6636 3 1.58992 4.76976 0.00000 -6.35968 0.00000 0.00000
2912 2913 6637 6638 3 1.58992 4.76976 0.00000 -6.35968 0.00000 0.00000
2912 2913 6637 6639 3 1.58992 4.76976 0.00000 -6.35968 0.00000 0.00000
2913 6637 6636 6635 3 1.78866 3.49154 0.53555 -5.81576 0.00000 0.00000
2913 6637 6636 6640 3 -1.26775 3.02085 1.74473 -3.49782 0.00000 0.00000
2918 2919 2927 2928 3 30.28798 -4.81160 -25.47638 0.00000 0.00000 0.00000 ; imides
2918 2937 2938 2939 3 33.20422 0.00000 -33.20422 0.00000 0.00000 0.00000 ; methylguanidinium ion
2918 2937 2938 2943 3 20.50160 0.00000 -20.50160 0.00000 0.00000 0.00000 ; imides
2919 2918 2937 2936 3 30.28798 -4.81160 -25.47638 0.00000 0.00000 0.00000 ; imides
2919 2918 2937 2938 3 33.20422 0.00000 -33.20422 0.00000 0.00000 0.00000 ; methylguanidinium ion
2919 2927 2928 2929 3 33.20422 0.00000 -33.20422 0.00000 0.00000 0.00000 ; methylguanidinium ion
2919 2927 2928 2936 3 30.28798 -4.81160 -25.47638 0.00000 0.00000 0.00000 ; imides
2920 2919 2927 2928 3 33.20422 0.00000 -33.20422 0.00000 0.00000 0.00000 ; methylguanidinium ion
2921 2922 7359 7358 3 1.58992 4.76976 0.00000 -6.35968 0.00000 0.00000
2921 2922 7359 7360 3 1.58992 4.76976 0.00000 -6.35968 0.00000 0.00000
2921 2922 7359 7361 3 1.58992 4.76976 0.00000 -6.35968 0.00000 0.00000
2922 7359 7358 7357 3 1.78866 3.49154 0.53555 -5.81576 0.00000 0.00000
2922 7359 7358 7362 3 -1.26775 3.02085 1.74473 -3.49782 0.00000 0.00000
2927 2919 2920 2921 3 33.20422 0.00000 -33.20422 0.00000 0.00000 0.00000 ; methylguanidinium ion
2927 2919 2920 2925 3 20.50160 0.00000 -20.50160 0.00000 0.00000 0.00000 ; imides
2927 2928 2936 2937 3 30.28798 -4.81160 -25.47638 0.00000 0.00000 0.00000 ; imides
2928 2936 2937 2918 3 30.28798 -4.81160 -25.47638 0.00000 0.00000 0.00000 ; imides
2928 2936 2937 2938 3 33.20422 0.00000 -33.20422 0.00000 0.00000 0.00000 ; methylguanidinium ion
2929 2928 2936 2937 3 33.20422 0.00000 -33.20422 0.00000 0.00000 0.00000 ; methylguanidinium ion
2930 2931 3141 3140 3 1.58992 4.76976 0.00000 -6.35968 0.00000 0.00000
2930 2931 3141 3142 3 1.58992 4.76976 0.00000 -6.35968 0.00000 0.00000
2930 2931 3141 3143 3 1.58992 4.76976 0.00000 -6.35968 0.00000 0.00000
2931 3141 3140 3139 3 1.78866 3.49154 0.53555 -5.81576 0.00000 0.00000
2931 3141 3140 3144 3 -1.26775 3.02085 1.74473 -3.49782 0.00000 0.00000
2936 2928 2929 2930 3 33.20422 0.00000 -33.20422 0.00000 0.00000 0.00000 ; methylguanidinium ion
2936 2928 2929 2934 3 20.50160 0.00000 -20.50160 0.00000 0.00000 0.00000 ; imides
2937 2918 2919 2920 3 33.20422 0.00000 -33.20422 0.00000 0.00000 0.00000 ; methylguanidinium ion
2937 2918 2919 2927 3 30.28798 -4.81160 -25.47638 0.00000 0.00000 0.00000 ; imides
2939 2940 9451 9450 3 1.58992 4.76976 0.00000 -6.35968 0.00000 0.00000
2939 2940 9451 9452 3 1.58992 4.76976 0.00000 -6.35968 0.00000 0.00000
2939 2940 9451 9453 3 1.58992 4.76976 0.00000 -6.35968 0.00000 0.00000
2940 9451 9450 9449 3 1.78866 3.49154 0.53555 -5.81576 0.00000 0.00000
2940 9451 9450 9454 3 -1.26775 3.02085 1.74473 -3.49782 0.00000 0.00000
2945 2946 2954 2955 3 30.28798 -4.81160 -25.47638 0.00000 0.00000 0.00000 ; imides
2945 2964 2965 2966 3 33.20422 0.00000 -33.20422 0.00000 0.00000 0.00000 ; methylguanidinium ion
2945 2964 2965 2970 3 20.50160 0.00000 -20.50160 0.00000 0.00000 0.00000 ; imides
2946 2945 2964 2963 3 30.28798 -4.81160 -25.47638 0.00000 0.00000 0.00000 ; imides
2946 2945 2964 2965 3 33.20422 0.00000 -33.20422 0.00000 0.00000 0.00000 ; methylguanidinium ion
2946 2954 2955 2956 3 33.20422 0.00000 -33.20422 0.00000 0.00000 0.00000 ; methylguanidinium ion
2946 2954 2955 2963 3 30.28798 -4.81160 -25.47638 0.00000 0.00000 0.00000 ; imides
2947 2946 2954 2955 3 33.20422 0.00000 -33.20422 0.00000 0.00000 0.00000 ; methylguanidinium ion
2948 2949 8998 8997 3 1.58992 4.76976 0.00000 -6.35968 0.00000 0.00000
2948 2949 8998 8999 3 1.58992 4.76976 0.00000 -6.35968 0.00000 0.00000
2948 2949 8998 9000 3 1.58992 4.76976 0.00000 -6.35968 0.00000 0.00000
2949 8998 8997 8996 3 1.78866 3.49154 0.53555 -5.81576 0.00000 0.00000
2949 8998 8997 9001 3 -1.26775 3.02085 1.74473 -3.49782 0.00000 0.00000
2954 2946 2947 2948 3 33.20422 0.00000 -33.20422 0.00000 0.00000 0.00000 ; methylguanidinium ion
2954 2946 2947 2952 3 20.50160 0.00000 -20.50160 0.00000 0.00000 0.00000 ; imides
2954 2955 2963 2964 3 30.28798 -4.81160 -25.47638 0.00000 0.00000 0.00000 ; imides
2955 2963 2964 2945 3 30.28798 -4.81160 -25.47638 0.00000 0.00000 0.00000 ; imides
2955 2963 2964 2965 3 33.20422 0.00000 -33.20422 0.00000 0.00000 0.00000 ; methylguanidinium ion
2956 2955 2963 2964 3 33.20422 0.00000 -33.20422 0.00000 0.00000 0.00000 ; methylguanidinium ion
2957 2958 3621 3620 3 1.58992 4.76976 0.00000 -6.35968 0.00000 0.00000
2957 2958 3621 3622 3 1.58992 4.76976 0.00000 -6.35968 0.00000 0.00000
2957 2958 3621 3623 3 1.58992 4.76976 0.00000 -6.35968 0.00000 0.00000
2958 3621 3620 3619 3 1.78866 3.49154 0.53555 -5.81576 0.00000 0.00000
2958 3621 3620 3624 3 -1.26775 3.02085 1.74473 -3.49782 0.00000 0.00000
2963 2955 2956 2957 3 33.20422 0.00000 -33.20422 0.00000 0.00000 0.00000 ; methylguanidinium ion
2963 2955 2956 2961 3 20.50160 0.00000 -20.50160 0.00000 0.00000 0.00000 ; imides
2964 2945 2946 2947 3 33.20422 0.00000 -33.20422 0.00000 0.00000 0.00000 ; methylguanidinium ion
2964 2945 2946 2954 3 30.28798 -4.81160 -25.47638 0.00000 0.00000 0.00000 ; imides
2966 2967 8066 8065 3 1.58992 4.76976 0.00000 -6.35968 0.00000 0.00000
2966 2967 8066 8067 3 1.58992 4.76976 0.00000 -6.35968 0.00000 0.00000
2966 2967 8066 8068 3 1.58992 4.76976 0.00000 -6.35968 0.00000 0.00000
2967 8066 8065 8064 3 1.78866 3.49154 0.53555 -5.81576 0.00000 0.00000
2967 8066 8065 8069 3 -1.26775 3.02085 1.74473 -3.49782 0.00000 0.00000
2972 2973 2981 2982 3 30.28798 -4.81160 -25.47638 0.00000 0.00000 0.00000 ; imides
2972 2991 2992 2993 3 33.20422 0.00000 -33.20422 0.00000 0.00000 0.00000 ; methylguanidinium ion
2972 2991 2992 2997 3 20.50160 0.00000 -20.50160 0.00000 0.00000 0.00000 ; imides
2973 2972 2991 2990 3 30.28798 -4.81160 -25.47638 0.00000 0.00000 0.00000 ; imides
2973 2972 2991 2992 3 33.20422 0.00000 -33.20422 0.00000 0.00000 0.00000 ; methylguanidinium ion
2973 2981 2982 2983 3 33.20422 0.00000 -33.20422 0.00000 0.00000 0.00000 ; methylguanidinium ion
2973 2981 2982 2990 3 30.28798 -4.81160 -25.47638 0.00000 0.00000 0.00000 ; imides
2974 2973 2981 2982 3 33.20422 0.00000 -33.20422 0.00000 0.00000 0.00000 ; methylguanidinium ion
2975 2976 3227 3226 3 1.58992 4.76976 0.00000 -6.35968 0.00000 0.00000
2975 2976 3227 3228 3 1.58992 4.76976 0.00000 -6.35968 0.00000 0.00000
2975 2976 3227 3229 3 1.58992 4.76976 0.00000 -6.35968 0.00000 0.00000
2976 3227 3226 3225 3 1.78866 3.49154 0.53555 -5.81576 0.00000 0.00000
2976 3227 3226 3230 3 -1.26775 3.02085 1.74473 -3.49782 0.00000 0.00000
2981 2973 2974 2975 3 33.20422 0.00000 -33.20422 0.00000 0.00000 0.00000 ; methylguanidinium ion
2981 2973 2974 2979 3 20.50160 0.00000 -20.50160 0.00000 0.00000 0.00000 ; imides
2981 2982 2990 2991 3 30.28798 -4.81160 -25.47638 0.00000 0.00000 0.00000 ; imides
2982 2990 2991 2972 3 30.28798 -4.81160 -25.47638 0.00000 0.00000 0.00000 ; imides
2982 2990 2991 2992 3 33.20422 0.00000 -33.20422 0.00000 0.00000 0.00000 ; methylguanidinium ion
2983 2982 2990 2991 3 33.20422 0.00000 -33.20422 0.00000 0.00000 0.00000 ; methylguanidinium ion
2984 2985 7343 7342 3 1.58992 4.76976 0.00000 -6.35968 0.00000 0.00000
2984 2985 7343 7344 3 1.58992 4.76976 0.00000 -6.35968 0.00000 0.00000
2984 2985 7343 7345 3 1.58992 4.76976 0.00000 -6.35968 0.00000 0.00000
2985 7343 7342 7341 3 1.78866 3.49154 0.53555 -5.81576 0.00000 0.00000
2985 7343 7342 7346 3 -1.26775 3.02085 1.74473 -3.49782 0.00000 0.00000
2990 2982 2983 2984 3 33.20422 0.00000 -33.20422 0.00000 0.00000 0.00000 ; methylguanidinium ion
2990 2982 2983 2988 3 20.50160 0.00000 -20.50160 0.00000 0.00000 0.00000 ; imides
2991 2972 2973 2974 3 33.20422 0.00000 -33.20422 0.00000 0.00000 0.00000 ; methylguanidinium ion
2991 2972 2973 2981 3 30.28798 -4.81160 -25.47638 0.00000 0.00000 0.00000 ; imides
2993 2994 10752 10751 3 1.58992 4.76976 0.00000 -6.35968 0.00000 0.00000
2993 2994 10752 10753 3 1.58992 4.76976 0.00000 -6.35968 0.00000 0.00000
2993 2994 10752 10754 3 1.58992 4.76976 0.00000 -6.35968 0.00000 0.00000
2994 10752 10751 10750 3 1.78866 3.49154 0.53555 -5.81576 0.00000 0.00000
2994 10752 10751 10755 3 -1.26775 3.02085 1.74473 -3.49782 0.00000 0.00000
2999 3000 3008 3009 3 30.28798 -4.81160 -25.47638 0.00000 0.00000 0.00000 ; imides
2999 3017 3018 3019 3 33.20422 0.00000 -33.20422 0.00000 0.00000 0.00000 ; methylguanidinium ion
2999 3017 3018 3022 3 20.50160 0.00000 -20.50160 0.00000 0.00000 0.00000 ; imides
3000 2999 3017 3016 3 30.28798 -4.81160 -25.47638 0.00000 0.00000 0.00000 ; imides
3000 2999 3017 3018 3 33.20422 0.00000 -33.20422 0.00000 0.00000 0.00000 ; methylguanidinium ion
3000 3008 3009 3010 3 33.20422 0.00000 -33.20422 0.00000 0.00000 0.00000 ; methylguanidinium ion
3000 3008 3009 3016 3 30.28798 -4.81160 -25.47638 0.00000 0.00000 0.00000 ; imides
3001 3000 3008 3009 3 33.20422 0.00000 -33.20422 0.00000 0.00000 0.00000 ; methylguanidinium ion
3002 3003 9467 9466 3 1.58992 4.76976 0.00000 -6.35968 0.00000 0.00000
3002 3003 9467 9468 3 1.58992 4.76976 0.00000 -6.35968 0.00000 0.00000
3002 3003 9467 9469 3 1.58992 4.76976 0.00000 -6.35968 0.00000 0.00000
3003 9467 9466 9465 3 1.78866 3.49154 0.53555 -5.81576 0.00000 0.00000
3003 9467 9466 9470 3 -1.26775 3.02085 1.74473 -3.49782 0.00000 0.00000
3008 3000 3001 3002 3 33.20422 0.00000 -33.20422 0.00000 0.00000 0.00000 ; methylguanidinium ion
3008 3000 3001 3006 3 20.50160 0.00000 -20.50160 0.00000 0.00000 0.00000 ; imides
3008 3009 3016 3017 3 30.28798 -4.81160 -25.47638 0.00000 0.00000 0.00000 ; imides
3009 3016 3017 2999 3 30.28798 -4.81160 -25.47638 0.00000 0.00000 0.00000 ; imides
3009 3016 3017 3018 3 33.20422 0.00000 -33.20422 0.00000 0.00000 0.00000 ; methylguanidinium ion
3010 3009 3016 3017 3 33.20422 0.00000 -33.20422 0.00000 0.00000 0.00000 ; methylguanidinium ion
3011 2418 2417 2416 3 1.58992 4.76976 0.00000 -6.35968 0.00000 0.00000
3011 2418 2417 2419 3 1.58992 4.76976 0.00000 -6.35968 0.00000 0.00000
3011 2418 2417 2420 3 1.58992 4.76976 0.00000 -6.35968 0.00000 0.00000
3016 3009 3010 3011 3 33.20422 0.00000 -33.20422 0.00000 0.00000 0.00000 ; methylguanidinium ion
3016 3009 3010 3014 3 20.50160 0.00000 -20.50160 0.00000 0.00000 0.00000 ; imides
3017 2999 3000 3001 3 33.20422 0.00000 -33.20422 0.00000 0.00000 0.00000 ; methylguanidinium ion
3017 2999 3000 3008 3 30.28798 -4.81160 -25.47638 0.00000 0.00000 0.00000 ; imides
3019 1154 1153 1152 3 1.58992 4.76976 0.00000 -6.35968 0.00000 0.00000
3019 1154 1153 1155 3 1.58992 4.76976 0.00000 -6.35968 0.00000 0.00000
3019 1154 1153 1156 3 1.58992 4.76976 0.00000 -6.35968 0.00000 0.00000
3024 3025 3032 3033 3 30.28798 -4.81160 -25.47638 0.00000 0.00000 0.00000 ; imides
3024 3042 3043 3044 3 33.20422 0.00000 -33.20422 0.00000 0.00000 0.00000 ; methylguanidinium ion
3024 3042 3043 3047 3 20.50160 0.00000 -20.50160 0.00000 0.00000 0.00000 ; imides
3025 3024 3042 3041 3 30.28798 -4.81160 -25.47638 0.00000 0.00000 0.00000 ; imides
3025 3024 3042 3043 3 33.20422 0.00000 -33.20422 0.00000 0.00000 0.00000 ; methylguanidinium ion
3025 3032 3033 3034 3 33.20422 0.00000 -33.20422 0.00000 0.00000 0.00000 ; methylguanidinium ion
3025 3032 3033 3041 3 30.28798 -4.81160 -25.47638 0.00000 0.00000 0.00000 ; imides
3026 3025 3032 3033 3 33.20422 0.00000 -33.20422 0.00000 0.00000 0.00000 ; methylguanidinium ion
3027 2391 2390 2389 3 1.58992 4.76976 0.00000 -6.35968 0.00000 0.00000
3027 2391 2390 2392 3 1.58992 4.76976 0.00000 -6.35968 0.00000 0.00000
3027 2391 2390 2393 3 1.58992 4.76976 0.00000 -6.35968 0.00000 0.00000
3032 3025 3026 3027 3 33.20422 0.00000 -33.20422 0.00000 0.00000 0.00000 ; methylguanidinium ion
3032 3025 3026 3030 3 20.50160 0.00000 -20.50160 0.00000 0.00000 0.00000 ; imides
3032 3033 3041 3042 3 30.28798 -4.81160 -25.47638 0.00000 0.00000 0.00000 ; imides
3033 3041 3042 3024 3 30.28798 -4.81160 -25.47638 0.00000 0.00000 0.00000 ; imides
3033 3041 3042 3043 3 33.20422 0.00000 -33.20422 0.00000 0.00000 0.00000 ; methylguanidinium ion
3034 3033 3041 3042 3 33.20422 0.00000 -33.20422 0.00000 0.00000 0.00000 ; methylguanidinium ion
3035 3036 7951 7950 3 1.58992 4.76976 0.00000 -6.35968 0.00000 0.00000
3035 3036 7951 7952 3 1.58992 4.76976 0.00000 -6.35968 0.00000 0.00000
3035 3036 7951 7953 3 1.58992 4.76976 0.00000 -6.35968 0.00000 0.00000
3036 7951 7950 7949 3 1.78866 3.49154 0.53555 -5.81576 0.00000 0.00000
3036 7951 7950 7954 3 -1.26775 3.02085 1.74473 -3.49782 0.00000 0.00000
3041 3033 3034 3035 3 33.20422 0.00000 -33.20422 0.00000 0.00000 0.00000 ; methylguanidinium ion
3041 3033 3034 3039 3 20.50160 0.00000 -20.50160 0.00000 0.00000 0.00000 ; imides
3042 3024 3025 3026 3 33.20422 0.00000 -33.20422 0.00000 0.00000 0.00000 ; methylguanidinium ion
3042 3024 3025 3032 3 30.28798 -4.81160 -25.47638 0.00000 0.00000 0.00000 ; imides
3044 744 743 742 3 1.58992 4.76976 0.00000 -6.35968 0.00000 0.00000
3044 744 743 745 3 1.58992 4.76976 0.00000 -6.35968 0.00000 0.00000
3044 744 743 746 3 1.58992 4.76976 0.00000 -6.35968 0.00000 0.00000
3049 3050 3057 3058 3 30.28798 -4.81160 -25.47638 0.00000 0.00000 0.00000 ; imides
3049 3067 3068 3069 3 33.20422 0.00000 -33.20422 0.00000 0.00000 0.00000 ; methylguanidinium ion
3049 3067 3068 3073 3 20.50160 0.00000 -20.50160 0.00000 0.00000 0.00000 ; imides
3050 3049 3067 3066 3 30.28798 -4.81160 -25.47638 0.00000 0.00000 0.00000 ; imides
3050 3049 3067 3068 3 33.20422 0.00000 -33.20422 0.00000 0.00000 0.00000 ; methylguanidinium ion
3050 3057 3058 3059 3 33.20422 0.00000 -33.20422 0.00000 0.00000 0.00000 ; methylguanidinium ion
3050 3057 3058 3066 3 30.28798 -4.81160 -25.47638 0.00000 0.00000 0.00000 ; imides
3051 3050 3057 3058 3 33.20422 0.00000 -33.20422 0.00000 0.00000 0.00000 ; methylguanidinium ion
3052 916 915 914 3 1.58992 4.76976 0.00000 -6.35968 0.00000 0.00000
3052 916 915 917 3 1.58992 4.76976 0.00000 -6.35968 0.00000 0.00000
3052 916 915 918 3 1.58992 4.76976 0.00000 -6.35968 0.00000 0.00000
3057 3050 3051 3052 3 33.20422 0.00000 -33.20422 0.00000 0.00000 0.00000 ; methylguanidinium ion
3057 3050 3051 3055 3 20.50160 0.00000 -20.50160 0.00000 0.00000 0.00000 ; imides
3057 3058 3066 3067 3 30.28798 -4.81160 -25.47638 0.00000 0.00000 0.00000 ; imides
3058 3066 3067 3049 3 30.28798 -4.81160 -25.47638 0.00000 0.00000 0.00000 ; imides
3058 3066 3067 3068 3 33.20422 0.00000 -33.20422 0.00000 0.00000 0.00000 ; methylguanidinium ion
3059 3058 3066 3067 3 33.20422 0.00000 -33.20422 0.00000 0.00000 0.00000 ; methylguanidinium ion
3060 3061 7288 7287 3 1.58992 4.76976 0.00000 -6.35968 0.00000 0.00000
3060 3061 7288 7289 3 1.58992 4.76976 0.00000 -6.35968 0.00000 0.00000
3060 3061 7288 7290 3 1.58992 4.76976 0.00000 -6.35968 0.00000 0.00000
3061 7288 7287 7286 3 1.78866 3.49154 0.53555 -5.81576 0.00000 0.00000
3061 7288 7287 7291 3 -1.26775 3.02085 1.74473 -3.49782 0.00000 0.00000
3066 3058 3059 3060 3 33.20422 0.00000 -33.20422 0.00000 0.00000 0.00000 ; methylguanidinium ion
3066 3058 3059 3064 3 20.50160 0.00000 -20.50160 0.00000 0.00000 0.00000 ; imides
3067 3049 3050 3051 3 33.20422 0.00000 -33.20422 0.00000 0.00000 0.00000 ; methylguanidinium ion
3067 3049 3050 3057 3 30.28798 -4.81160 -25.47638 0.00000 0.00000 0.00000 ; imides
3069 3070 11923 11922 3 1.58992 4.76976 0.00000 -6.35968 0.00000 0.00000
3069 3070 11923 11924 3 1.58992 4.76976 0.00000 -6.35968 0.00000 0.00000
3069 3070 11923 11925 3 1.58992 4.76976 0.00000 -6.35968 0.00000 0.00000
3070 11923 11922 11921 3 1.78866 3.49154 0.53555 -5.81576 0.00000 0.00000
3070 11923 11922 11926 3 -1.26775 3.02085 1.74473 -3.49782 0.00000 0.00000
3075 3076 3084 3085 3 30.28798 -4.81160 -25.47638 0.00000 0.00000 0.00000 ; imides
3075 3095 3096 3097 3 33.20422 0.00000 -33.20422 0.00000 0.00000 0.00000 ; methylguanidinium ion
3075 3095 3096 3101 3 20.50160 0.00000 -20.50160 0.00000 0.00000 0.00000 ; imides
3076 3075 3095 3094 3 30.28798 -4.81160 -25.47638 0.00000 0.00000 0.00000 ; imides
3076 3075 3095 3096 3 33.20422 0.00000 -33.20422 0.00000 0.00000 0.00000 ; methylguanidinium ion
3076 3084 3085 3086 3 33.20422 0.00000 -33.20422 0.00000 0.00000 0.00000 ; methylguanidinium ion
3076 3084 3085 3094 3 30.28798 -4.81160 -25.47638 0.00000 0.00000 0.00000 ; imides
3077 3076 3084 3085 3 33.20422 0.00000 -33.20422 0.00000 0.00000 0.00000 ; methylguanidinium ion
3078 3079 3210 3209 3 1.58992 4.76976 0.00000 -6.35968 0.00000 0.00000
3078 3079 3210 3211 3 1.58992 4.76976 0.00000 -6.35968 0.00000 0.00000
3078 3079 3210 3212 3 1.58992 4.76976 0.00000 -6.35968 0.00000 0.00000
3079 3210 3209 3208 3 1.78866 3.49154 0.53555 -5.81576 0.00000 0.00000
3079 3210 3209 3213 3 -1.26775 3.02085 1.74473 -3.49782 0.00000 0.00000
3084 3076 3077 3078 3 33.20422 0.00000 -33.20422 0.00000 0.00000 0.00000 ; methylguanidinium ion
3084 3076 3077 3082 3 20.50160 0.00000 -20.50160 0.00000 0.00000 0.00000 ; imides
3084 3085 3094 3095 3 30.28798 -4.81160 -25.47638 0.00000 0.00000 0.00000 ; imides
3085 3094 3095 3075 3 30.28798 -4.81160 -25.47638 0.00000 0.00000 0.00000 ; imides
3085 3094 3095 3096 3 33.20422 0.00000 -33.20422 0.00000 0.00000 0.00000 ; methylguanidinium ion
3086 3085 3094 3095 3 33.20422 0.00000 -33.20422 0.00000 0.00000 0.00000 ; methylguanidinium ion
3094 3085 3086 3087 3 33.20422 0.00000 -33.20422 0.00000 0.00000 0.00000 ; methylguanidinium ion
3094 3085 3086 3092 3 20.50160 0.00000 -20.50160 0.00000 0.00000 0.00000 ; imides
3095 3075 3076 3077 3 33.20422 0.00000 -33.20422 0.00000 0.00000 0.00000 ; methylguanidinium ion
3095 3075 3076 3084 3 30.28798 -4.81160 -25.47638 0.00000 0.00000 0.00000 ; imides
3097 3098 4956 4955 3 1.58992 4.76976 0.00000 -6.35968 0.00000 0.00000
3097 3098 4956 4957 3 1.58992 4.76976 0.00000 -6.35968 0.00000 0.00000
3097 3098 4956 4958 3 1.58992 4.76976 0.00000 -6.35968 0.00000 0.00000
3098 4956 4955 4954 3 1.78866 3.49154 0.53555 -5.81576 0.00000 0.00000
3098 4956 4955 4959 3 -1.26775 3.02085 1.74473 -3.49782 0.00000 0.00000
3103 3104 3111 3112 3 30.28798 -4.81160 -25.47638 0.00000 0.00000 0.00000 ; imides
3103 3121 3122 3123 3 33.20422 0.00000 -33.20422 0.00000 0.00000 0.00000 ; methylguanidinium ion
3103 3121 3122 3127 3 20.50160 0.00000 -20.50160 0.00000 0.00000 0.00000 ; imides
3104 3103 3121 3120 3 30.28798 -4.81160 -25.47638 0.00000 0.00000 0.00000 ; imides
3104 3103 3121 3122 3 33.20422 0.00000 -33.20422 0.00000 0.00000 0.00000 ; methylguanidinium ion
3104 3111 3112 3113 3 33.20422 0.00000 -33.20422 0.00000 0.00000 0.00000 ; methylguanidinium ion
3104 3111 3112 3120 3 30.28798 -4.81160 -25.47638 0.00000 0.00000 0.00000 ; imides
3105 3104 3111 3112 3 33.20422 0.00000 -33.20422 0.00000 0.00000 0.00000 ; methylguanidinium ion
3106 263 262 261 3 1.58992 4.76976 0.00000 -6.35968 0.00000 0.00000
3106 263 262 264 3 1.58992 4.76976 0.00000 -6.35968 0.00000 0.00000
3106 263 262 265 3 1.58992 4.76976 0.00000 -6.35968 0.00000 0.00000
3111 3104 3105 3106 3 33.20422 0.00000 -33.20422 0.00000 0.00000 0.00000 ; methylguanidinium ion
3111 3104 3105 3109 3 20.50160 0.00000 -20.50160 0.00000 0.00000 0.00000 ; imides
3111 3112 3120 3121 3 30.28798 -4.81160 -25.47638 0.00000 0.00000 0.00000 ; imides
3112 3120 3121 3103 3 30.28798 -4.81160 -25.47638 0.00000 0.00000 0.00000 ; imides
3112 3120 3121 3122 3 33.20422 0.00000 -33.20422 0.00000 0.00000 0.00000 ; methylguanidinium ion
3113 3112 3120 3121 3 33.20422 0.00000 -33.20422 0.00000 0.00000 0.00000 ; methylguanidinium ion
3114 3115 12436 12435 3 1.58992 4.76976 0.00000 -6.35968 0.00000 0.00000
3114 3115 12436 12437 3 1.58992 4.76976 0.00000 -6.35968 0.00000 0.00000
3114 3115 12436 12438 3 1.58992 4.76976 0.00000 -6.35968 0.00000 0.00000
3115 12436 12435 12434 3 1.78866 3.49154 0.53555 -5.81576 0.00000 0.00000
3115 12436 12435 12439 3 -1.26775 3.02085 1.74473 -3.49782 0.00000 0.00000
3120 3112 3113 3114 3 33.20422 0.00000 -33.20422 0.00000 0.00000 0.00000 ; methylguanidinium ion
3120 3112 3113 3118 3 20.50160 0.00000 -20.50160 0.00000 0.00000 0.00000 ; imides
3121 3103 3104 3105 3 33.20422 0.00000 -33.20422 0.00000 0.00000 0.00000 ; methylguanidinium ion
3121 3103 3104 3111 3 30.28798 -4.81160 -25.47638 0.00000 0.00000 0.00000 ; imides
3123 3124 10374 10373 3 1.58992 4.76976 0.00000 -6.35968 0.00000 0.00000
3123 3124 10374 10375 3 1.58992 4.76976 0.00000 -6.35968 0.00000 0.00000
3123 3124 10374 10376 3 1.58992 4.76976 0.00000 -6.35968 0.00000 0.00000
3124 10374 10373 10372 3 1.78866 3.49154 0.53555 -5.81576 0.00000 0.00000
3124 10374 10373 10377 3 -1.26775 3.02085 1.74473 -3.49782 0.00000 0.00000
3129 3130 3138 3139 3 30.28798 -4.81160 -25.47638 0.00000 0.00000 0.00000 ; imides
3129 3147 3148 3149 3 33.20422 0.00000 -33.20422 0.00000 0.00000 0.00000 ; methylguanidinium ion
3129 3147 3148 3152 3 20.50160 0.00000 -20.50160 0.00000 0.00000 0.00000 ; imides
3130 3129 3147 3146 3 30.28798 -4.81160 -25.47638 0.00000 0.00000 0.00000 ; imides
3130 3129 3147 3148 3 33.20422 0.00000 -33.20422 0.00000 0.00000 0.00000 ; methylguanidinium ion
3130 3138 3139 3140 3 33.20422 0.00000 -33.20422 0.00000 0.00000 0.00000 ; methylguanidinium ion
3130 3138 3139 3146 3 30.28798 -4.81160 -25.47638 0.00000 0.00000 0.00000 ; imides
3131 3130 3138 3139 3 33.20422 0.00000 -33.20422 0.00000 0.00000 0.00000 ; methylguanidinium ion
3132 3133 10601 10600 3 1.58992 4.76976 0.00000 -6.35968 0.00000 0.00000
3132 3133 10601 10602 3 1.58992 4.76976 0.00000 -6.35968 0.00000 0.00000
3132 3133 10601 10603 3 1.58992 4.76976 0.00000 -6.35968 0.00000 0.00000
3133 10601 10600 10599 3 1.78866 3.49154 0.53555 -5.81576 0.00000 0.00000
3133 10601 10600 10604 3 -1.26775 3.02085 1.74473 -3.49782 0.00000 0.00000
3138 3130 3131 3132 3 33.20422 0.00000 -33.20422 0.00000 0.00000 0.00000 ; methylguanidinium ion
3138 3130 3131 3136 3 20.50160 0.00000 -20.50160 0.00000 0.00000 0.00000 ; imides
3138 3139 3146 3147 3 30.28798 -4.81160 -25.47638 0.00000 0.00000 0.00000 ; imides
3139 3146 3147 3129 3 30.28798 -4.81160 -25.47638 0.00000 0.00000 0.00000 ; imides
3139 3146 3147 3148 3 33.20422 0.00000 -33.20422 0.00000 0.00000 0.00000 ; methylguanidinium ion
3140 3139 3146 3147 3 33.20422 0.00000 -33.20422 0.00000 0.00000 0.00000 ; methylguanidinium ion
3141 2931 2930 2929 3 1.58992 4.76976 0.00000 -6.35968 0.00000 0.00000
3141 2931 2930 2932 3 1.58992 4.76976 0.00000 -6.35968 0.00000 0.00000
3141 2931 2930 2933 3 1.58992 4.76976 0.00000 -6.35968 0.00000 0.00000
3146 3139 3140 3141 3 33.20422 0.00000 -33.20422 0.00000 0.00000 0.00000 ; methylguanidinium ion
3146 3139 3140 3144 3 20.50160 0.00000 -20.50160 0.00000 0.00000 0.00000 ; imides
3147 3129 3130 3131 3 33.20422 0.00000 -33.20422 0.00000 0.00000 0.00000 ; methylguanidinium ion
3147 3129 3130 3138 3 30.28798 -4.81160 -25.47638 0.00000 0.00000 0.00000 ; imides
3149 1082 1081 1080 3 1.58992 4.76976 0.00000 -6.35968 0.00000 0.00000
3149 1082 1081 1083 3 1.58992 4.76976 0.00000 -6.35968 0.00000 0.00000
3149 1082 1081 1084 3 1.58992 4.76976 0.00000 -6.35968 0.00000 0.00000
3154 3155 3162 3163 3 30.28798 -4.81160 -25.47638 0.00000 0.00000 0.00000 ; imides
3154 3172 3173 3174 3 33.20422 0.00000 -33.20422 0.00000 0.00000 0.00000 ; methylguanidinium ion
3154 3172 3173 3177 3 20.50160 0.00000 -20.50160 0.00000 0.00000 0.00000 ; imides
3155 3154 3172 3171 3 30.28798 -4.81160 -25.47638 0.00000 0.00000 0.00000 ; imides
3155 3154 3172 3173 3 33.20422 0.00000 -33.20422 0.00000 0.00000 0.00000 ; methylguanidinium ion
3155 3162 3163 3164 3 33.20422 0.00000 -33.20422 0.00000 0.00000 0.00000 ; methylguanidinium ion
3155 3162 3163 3171 3 30.28798 -4.81160 -25.47638 0.00000 0.00000 0.00000 ; imides
3156 3155 3162 3163 3 33.20422 0.00000 -33.20422 0.00000 0.00000 0.00000 ; methylguanidinium ion
3157 419 418 417 3 1.58992 4.76976 0.00000 -6.35968 0.00000 0.00000
3157 419 418 420 3 1.58992 4.76976 0.00000 -6.35968 0.00000 0.00000
3157 419 418 421 3 1.58992 4.76976 0.00000 -6.35968 0.00000 0.00000
3162 3155 3156 3157 3 33.20422 0.00000 -33.20422 0.00000 0.00000 0.00000 ; methylguanidinium ion
3162 3155 3156 3160 3 20.50160 0.00000 -20.50160 0.00000 0.00000 0.00000 ; imides
3162 3163 3171 3172 3 30.28798 -4.81160 -25.47638 0.00000 0.00000 0.00000 ; imides
3163 3171 3172 3154 3 30.28798 -4.81160 -25.47638 0.00000 0.00000 0.00000 ; imides
3163 3171 3172 3173 3 33.20422 0.00000 -33.20422 0.00000 0.00000 0.00000 ; methylguanidinium ion
3164 3163 3171 3172 3 33.20422 0.00000 -33.20422 0.00000 0.00000 0.00000 ; methylguanidinium ion
3165 3166 7832 7831 3 1.58992 4.76976 0.00000 -6.35968 0.00000 0.00000
3165 3166 7832 7833 3 1.58992 4.76976 0.00000 -6.35968 0.00000 0.00000
3165 3166 7832 7834 3 1.58992 4.76976 0.00000 -6.35968 0.00000 0.00000
3166 7832 7831 7830 3 1.78866 3.49154 0.53555 -5.81576 0.00000 0.00000
3166 7832 7831 7835 3 -1.26775 3.02085 1.74473 -3.49782 0.00000 0.00000
3171 3163 3164 3165 3 33.20422 0.00000 -33.20422 0.00000 0.00000 0.00000 ; methylguanidinium ion
3171 3163 3164 3169 3 20.50160 0.00000 -20.50160 0.00000 0.00000 0.00000 ; imides
3172 3154 3155 3156 3 33.20422 0.00000 -33.20422 0.00000 0.00000 0.00000 ; methylguanidinium ion
3172 3154 3155 3162 3 30.28798 -4.81160 -25.47638 0.00000 0.00000 0.00000 ; imides
3174 335 334 333 3 1.58992 4.76976 0.00000 -6.35968 0.00000 0.00000
3174 335 334 336 3 1.58992 4.76976 0.00000 -6.35968 0.00000 0.00000
3174 335 334 337 3 1.58992 4.76976 0.00000 -6.35968 0.00000 0.00000
3179 3180 3188 3189 3 30.28798 -4.81160 -25.47638 0.00000 0.00000 0.00000 ; imides
3179 3199 3200 3201 3 33.20422 0.00000 -33.20422 0.00000 0.00000 0.00000 ; methylguanidinium ion
3179 3199 3200 3205 3 20.50160 0.00000 -20.50160 0.00000 0.00000 0.00000 ; imides
3180 3179 3199 3198 3 30.28798 -4.81160 -25.47638 0.00000 0.00000 0.00000 ; imides
3180 3179 3199 3200 3 33.20422 0.00000 -33.20422 0.00000 0.00000 0.00000 ; methylguanidinium ion
3180 3188 3189 3190 3 33.20422 0.00000 -33.20422 0.00000 0.00000 0.00000 ; methylguanidinium ion
3180 3188 3189 3198 3 30.28798 -4.81160 -25.47638 0.00000 0.00000 0.00000 ; imides
3181 3180 3188 3189 3 33.20422 0.00000 -33.20422 0.00000 0.00000 0.00000 ; methylguanidinium ion
3182 3183 6866 6865 3 1.58992 4.76976 0.00000 -6.35968 0.00000 0.00000
3182 3183 6866 6867 3 1.58992 4.76976 0.00000 -6.35968 0.00000 0.00000
3182 3183 6866 6868 3 1.58992 4.76976 0.00000 -6.35968 0.00000 0.00000
3183 6866 6865 6864 3 1.78866 3.49154 0.53555 -5.81576 0.00000 0.00000
3183 6866 6865 6869 3 -1.26775 3.02085 1.74473 -3.49782 0.00000 0.00000
3188 3180 3181 3182 3 33.20422 0.00000 -33.20422 0.00000 0.00000 0.00000 ; methylguanidinium ion
3188 3180 3181 3186 3 20.50160 0.00000 -20.50160 0.00000 0.00000 0.00000 ; imides
3188 3189 3198 3199 3 30.28798 -4.81160 -25.47638 0.00000 0.00000 0.00000 ; imides
3189 3198 3199 3179 3 30.28798 -4.81160 -25.47638 0.00000 0.00000 0.00000 ; imides
3189 3198 3199 3200 3 33.20422 0.00000 -33.20422 0.00000 0.00000 0.00000 ; methylguanidinium ion
3190 3189 3198 3199 3 33.20422 0.00000 -33.20422 0.00000 0.00000 0.00000 ; methylguanidinium ion
3198 3189 3190 3191 3 33.20422 0.00000 -33.20422 0.00000 0.00000 0.00000 ; methylguanidinium ion
3198 3189 3190 3196 3 20.50160 0.00000 -20.50160 0.00000 0.00000 0.00000 ; imides
3199 3179 3180 3181 3 33.20422 0.00000 -33.20422 0.00000 0.00000 0.00000 ; methylguanidinium ion
3199 3179 3180 3188 3 30.28798 -4.81160 -25.47638 0.00000 0.00000 0.00000 ; imides
3201 3202 4134 4133 3 1.58992 4.76976 0.00000 -6.35968 0.00000 0.00000
3201 3202 4134 4135 3 1.58992 4.76976 0.00000 -6.35968 0.00000 0.00000
3201 3202 4134 4136 3 1.58992 4.76976 0.00000 -6.35968 0.00000 0.00000
3202 4134 4133 4132 3 1.78866 3.49154 0.53555 -5.81576 0.00000 0.00000
3202 4134 4133 4137 3 -1.26775 3.02085 1.74473 -3.49782 0.00000 0.00000
3207 3208 3215 3216 3 30.28798 -4.81160 -25.47638 0.00000 0.00000 0.00000 ; imides
3207 3225 3226 3227 3 33.20422 0.00000 -33.20422 0.00000 0.00000 0.00000 ; methylguanidinium ion
3207 3225 3226 3230 3 20.50160 0.00000 -20.50160 0.00000 0.00000 0.00000 ; imides
3208 3207 3225 3224 3 30.28798 -4.81160 -25.47638 0.00000 0.00000 0.00000 ; imides
3208 3207 3225 3226 3 33.20422 0.00000 -33.20422 0.00000 0.00000 0.00000 ; methylguanidinium ion
3208 3215 3216 3217 3 33.20422 0.00000 -33.20422 0.00000 0.00000 0.00000 ; methylguanidinium ion
3208 3215 3216 3224 3 30.28798 -4.81160 -25.47638 0.00000 0.00000 0.00000 ; imides
3209 3208 3215 3216 3 33.20422 0.00000 -33.20422 0.00000 0.00000 0.00000 ; methylguanidinium ion
3210 3079 3078 3077 3 1.58992 4.76976 0.00000 -6.35968 0.00000 0.00000
3210 3079 3078 3080 3 1.58992 4.76976 0.00000 -6.35968 0.00000 0.00000
3210 3079 3078 3081 3 1.58992 4.76976 0.00000 -6.35968 0.00000 0.00000
3215 3208 3209 3210 3 33.20422 0.00000 -33.20422 0.00000 0.00000 0.00000 ; methylguanidinium ion
3215 3208 3209 3213 3 20.50160 0.00000 -20.50160 0.00000 0.00000 0.00000 ; imides
3215 3216 3224 3225 3 30.28798 -4.81160 -25.47638 0.00000 0.00000 0.00000 ; imides
3216 3224 3225 3207 3 30.28798 -4.81160 -25.47638 0.00000 0.00000 0.00000 ; imides
3216 3224 3225 3226 3 33.20422 0.00000 -33.20422 0.00000 0.00000 0.00000 ; methylguanidinium ion
3217 3216 3224 3225 3 33.20422 0.00000 -33.20422 0.00000 0.00000 0.00000 ; methylguanidinium ion
3218 3219 12916 12915 3 1.58992 4.76976 0.00000 -6.35968 0.00000 0.00000
3218 3219 12916 12917 3 1.58992 4.76976 0.00000 -6.35968 0.00000 0.00000
3218 3219 12916 12918 3 1.58992 4.76976 0.00000 -6.35968 0.00000 0.00000
3219 12916 12915 12914 3 1.78866 3.49154 0.53555 -5.81576 0.00000 0.00000
3219 12916 12915 12919 3 -1.26775 3.02085 1.74473 -3.49782 0.00000 0.00000
3224 3216 3217 3218 3 33.20422 0.00000 -33.20422 0.00000 0.00000 0.00000 ; methylguanidinium ion
3224 3216 3217 3222 3 20.50160 0.00000 -20.50160 0.00000 0.00000 0.00000 ; imides
3225 3207 3208 3209 3 33.20422 0.00000 -33.20422 0.00000 0.00000 0.00000 ; methylguanidinium ion
3225 3207 3208 3215 3 30.28798 -4.81160 -25.47638 0.00000 0.00000 0.00000 ; imides
3227 2976 2975 2974 3 1.58992 4.76976 0.00000 -6.35968 0.00000 0.00000
3227 2976 2975 2977 3 1.58992 4.76976 0.00000 -6.35968 0.00000 0.00000
3227 2976 2975 2978 3 1.58992 4.76976 0.00000 -6.35968 0.00000 0.00000
3232 3233 3241 3242 3 30.28798 -4.81160 -25.47638 0.00000 0.00000 0.00000 ; imides
3232 3252 3253 3254 3 33.20422 0.00000 -33.20422 0.00000 0.00000 0.00000 ; methylguanidinium ion
3232 3252 3253 3258 3 20.50160 0.00000 -20.50160 0.00000 0.00000 0.00000 ; imides
3233 3232 3252 3251 3 30.28798 -4.81160 -25.47638 0.00000 0.00000 0.00000 ; imides
3233 3232 3252 3253 3 33.20422 0.00000 -33.20422 0.00000 0.00000 0.00000 ; methylguanidinium ion
3233 3241 3242 3243 3 33.20422 0.00000 -33.20422 0.00000 0.00000 0.00000 ; methylguanidinium ion
3233 3241 3242 3251 3 30.28798 -4.81160 -25.47638 0.00000 0.00000 0.00000 ; imides
3234 3233 3241 3242 3 33.20422 0.00000 -33.20422 0.00000 0.00000 0.00000 ; methylguanidinium ion
3235 3236 10784 10783 3 1.58992 4.76976 0.00000 -6.35968 0.00000 0.00000
3235 3236 10784 10785 3 1.58992 4.76976 0.00000 -6.35968 0.00000 0.00000
3235 3236 10784 10786 3 1.58992 4.76976 0.00000 -6.35968 0.00000 0.00000
3236 10784 10783 10782 3 1.78866 3.49154 0.53555 -5.81576 0.00000 0.00000
3236 10784 10783 10787 3 -1.26775 3.02085 1.74473 -3.49782 0.00000 0.00000
3241 3233 3234 3235 3 33.20422 0.00000 -33.20422 0.00000 0.00000 0.00000 ; methylguanidinium ion
3241 3233 3234 3239 3 20.50160 0.00000 -20.50160 0.00000 0.00000 0.00000 ; imides
3241 3242 3251 3252 3 30.28798 -4.81160 -25.47638 0.00000 0.00000 0.00000 ; imides
3242 3251 3252 3232 3 30.28798 -4.81160 -25.47638 0.00000 0.00000 0.00000 ; imides
3242 3251 3252 3253 3 33.20422 0.00000 -33.20422 0.00000 0.00000 0.00000 ; methylguanidinium ion
3243 3242 3251 3252 3 33.20422 0.00000 -33.20422 0.00000 0.00000 0.00000 ; methylguanidinium ion
3251 3242 3243 3244 3 33.20422 0.00000 -33.20422 0.00000 0.00000 0.00000 ; methylguanidinium ion
3251 3242 3243 3249 3 20.50160 0.00000 -20.50160 0.00000 0.00000 0.00000 ; imides
3252 3232 3233 3234 3 33.20422 0.00000 -33.20422 0.00000 0.00000 0.00000 ; methylguanidinium ion
3252 3232 3233 3241 3 30.28798 -4.81160 -25.47638 0.00000 0.00000 0.00000 ; imides
3254 3255 11824 11823 3 1.58992 4.76976 0.00000 -6.35968 0.00000 0.00000
3254 3255 11824 11825 3 1.58992 4.76976 0.00000 -6.35968 0.00000 0.00000
3254 3255 11824 11826 3 1.58992 4.76976 0.00000 -6.35968 0.00000 0.00000
3255 11824 11823 11822 3 1.78866 3.49154 0.53555 -5.81576 0.00000 0.00000
3255 11824 11823 11827 3 -1.26775 3.02085 1.74473 -3.49782 0.00000 0.00000
3260 3261 3269 3270 3 30.28798 -4.81160 -25.47638 0.00000 0.00000 0.00000 ; imides
3260 3279 3280 3281 3 33.20422 0.00000 -33.20422 0.00000 0.00000 0.00000 ; methylguanidinium ion
3260 3279 3280 3285 3 20.50160 0.00000 -20.50160 0.00000 0.00000 0.00000 ; imides
3261 3260 3279 3278 3 30.28798 -4.81160 -25.47638 0.00000 0.00000 0.00000 ; imides
3261 3260 3279 3280 3 33.20422 0.00000 -33.20422 0.00000 0.00000 0.00000 ; methylguanidinium ion
3261 3269 3270 3271 3 33.20422 0.00000 -33.20422 0.00000 0.00000 0.00000 ; methylguanidinium ion
3261 3269 3270 3278 3 30.28798 -4.81160 -25.47638 0.00000 0.00000 0.00000 ; imides
3262 3261 3269 3270 3 33.20422 0.00000 -33.20422 0.00000 0.00000 0.00000 ; methylguanidinium ion
3263 3264 5467 5466 3 1.58992 4.76976 0.00000 -6.35968 0.00000 0.00000
3263 3264 5467 5468 3 1.58992 4.76976 0.00000 -6.35968 0.00000 0.00000
3263 3264 5467 5469 3 1.58992 4.76976 0.00000 -6.35968 0.00000 0.00000
3264 5467 5466 5465 3 1.78866 3.49154 0.53555 -5.81576 0.00000 0.00000
3264 5467 5466 5470 3 -1.26775 3.02085 1.74473 -3.49782 0.00000 0.00000
3269 3261 3262 3263 3 33.20422 0.00000 -33.20422 0.00000 0.00000 0.00000 ; methylguanidinium ion
3269 3261 3262 3267 3 20.50160 0.00000 -20.50160 0.00000 0.00000 0.00000 ; imides
3269 3270 3278 3279 3 30.28798 -4.81160 -25.47638 0.00000 0.00000 0.00000 ; imides
3270 3278 3279 3260 3 30.28798 -4.81160 -25.47638 0.00000 0.00000 0.00000 ; imides
3270 3278 3279 3280 3 33.20422 0.00000 -33.20422 0.00000 0.00000 0.00000 ; methylguanidinium ion
3271 3270 3278 3279 3 33.20422 0.00000 -33.20422 0.00000 0.00000 0.00000 ; methylguanidinium ion
3272 3273 4366 4365 3 1.58992 4.76976 0.00000 -6.35968 0.00000 0.00000
3272 3273 4366 4367 3 1.58992 4.76976 0.00000 -6.35968 0.00000 0.00000
3272 3273 4366 4368 3 1.58992 4.76976 0.00000 -6.35968 0.00000 0.00000
3273 4366 4365 4364 3 1.78866 3.49154 0.53555 -5.81576 0.00000 0.00000
3273 4366 4365 4369 3 -1.26775 3.02085 1.74473 -3.49782 0.00000 0.00000
3278 3270 3271 3272 3 33.20422 0.00000 -33.20422 0.00000 0.00000 0.00000 ; methylguanidinium ion
3278 3270 3271 3276 3 20.50160 0.00000 -20.50160 0.00000 0.00000 0.00000 ; imides
3279 3260 3261 3262 3 33.20422 0.00000 -33.20422 0.00000 0.00000 0.00000 ; methylguanidinium ion
3279 3260 3261 3269 3 30.28798 -4.81160 -25.47638 0.00000 0.00000 0.00000 ; imides
3281 3282 12266 12265 3 1.58992 4.76976 0.00000 -6.35968 0.00000 0.00000
3281 3282 12266 12267 3 1.58992 4.76976 0.00000 -6.35968 0.00000 0.00000
3281 3282 12266 12268 3 1.58992 4.76976 0.00000 -6.35968 0.00000 0.00000
3282 12266 12265 12264 3 1.78866 3.49154 0.53555 -5.81576 0.00000 0.00000
3282 12266 12265 12269 3 -1.26775 3.02085 1.74473 -3.49782 0.00000 0.00000
3287 3288 3296 3297 3 30.28798 -4.81160 -25.47638 0.00000 0.00000 0.00000 ; imides
3287 3306 3307 3308 3 33.20422 0.00000 -33.20422 0.00000 0.00000 0.00000 ; methylguanidinium ion
3287 3306 3307 3312 3 20.50160 0.00000 -20.50160 0.00000 0.00000 0.00000 ; imides
3288 3287 3306 3305 3 30.28798 -4.81160 -25.47638 0.00000 0.00000 0.00000 ; imides
3288 3287 3306 3307 3 33.20422 0.00000 -33.20422 0.00000 0.00000 0.00000 ; methylguanidinium ion
3288 3296 3297 3298 3 33.20422 0.00000 -33.20422 0.00000 0.00000 0.00000 ; methylguanidinium ion
3288 3296 3297 3305 3 30.28798 -4.81160 -25.47638 0.00000 0.00000 0.00000 ; imides
3289 3288 3296 3297 3 33.20422 0.00000 -33.20422 0.00000 0.00000 0.00000 ; methylguanidinium ion
3290 3291 9290 9289 3 1.58992 4.76976 0.00000 -6.35968 0.00000 0.00000
3290 3291 9290 9291 3 1.58992 4.76976 0.00000 -6.35968 0.00000 0.00000
3290 3291 9290 9292 3 1.58992 4.76976 0.00000 -6.35968 0.00000 0.00000
3291 9290 9289 9288 3 1.78866 3.49154 0.53555 -5.81576 0.00000 0.00000
3291 9290 9289 9293 3 -1.26775 3.02085 1.74473 -3.49782 0.00000 0.00000
3296 3288 3289 3290 3 33.20422 0.00000 -33.20422 0.00000 0.00000 0.00000 ; methylguanidinium ion
3296 3288 3289 3294 3 20.50160 0.00000 -20.50160 0.00000 0.00000 0.00000 ; imides
3296 3297 3305 3306 3 30.28798 -4.81160 -25.47638 0.00000 0.00000 0.00000 ; imides
3297 3305 3306 3287 3 30.28798 -4.81160 -25.47638 0.00000 0.00000 0.00000 ; imides
3297 3305 3306 3307 3 33.20422 0.00000 -33.20422 0.00000 0.00000 0.00000 ; methylguanidinium ion
3298 3297 3305 3306 3 33.20422 0.00000 -33.20422 0.00000 0.00000 0.00000 ; methylguanidinium ion
3299 3300 6553 6552 3 1.58992 4.76976 0.00000 -6.35968 0.00000 0.00000
3299 3300 6553 6554 3 1.58992 4.76976 0.00000 -6.35968 0.00000 0.00000
3299 3300 6553 6555 3 1.58992 4.76976 0.00000 -6.35968 0.00000 0.00000
3300 6553 6552 6551 3 1.78866 3.49154 0.53555 -5.81576 0.00000 0.00000
3300 6553 6552 6556 3 -1.26775 3.02085 1.74473 -3.49782 0.00000 0.00000
3305 3297 3298 3299 3 33.20422 0.00000 -33.20422 0.00000 0.00000 0.00000 ; methylguanidinium ion
3305 3297 3298 3303 3 20.50160 0.00000 -20.50160 0.00000 0.00000 0.00000 ; imides
3306 3287 3288 3289 3 33.20422 0.00000 -33.20422 0.00000 0.00000 0.00000 ; methylguanidinium ion
3306 3287 3288 3296 3 30.28798 -4.81160 -25.47638 0.00000 0.00000 0.00000 ; imides
3308 3309 12510 12509 3 1.58992 4.76976 0.00000 -6.35968 0.00000 0.00000
3308 3309 12510 12511 3 1.58992 4.76976 0.00000 -6.35968 0.00000 0.00000
3308 3309 12510 12512 3 1.58992 4.76976 0.00000 -6.35968 0.00000 0.00000
3309 12510 12509 12508 3 1.78866 3.49154 0.53555 -5.81576 0.00000 0.00000
3309 12510 12509 12513 3 -1.26775 3.02085 1.74473 -3.49782 0.00000 0.00000
3314 3315 3322 3323 3 30.28798 -4.81160 -25.47638 0.00000 0.00000 0.00000 ; imides
3314 3332 3333 3334 3 33.20422 0.00000 -33.20422 0.00000 0.00000 0.00000 ; methylguanidinium ion
3314 3332 3333 3338 3 20.50160 0.00000 -20.50160 0.00000 0.00000 0.00000 ; imides
3315 3314 3332 3331 3 30.28798 -4.81160 -25.47638 0.00000 0.00000 0.00000 ; imides
3315 3314 3332 3333 3 33.20422 0.00000 -33.20422 0.00000 0.00000 0.00000 ; methylguanidinium ion
3315 3322 3323 3324 3 33.20422 0.00000 -33.20422 0.00000 0.00000 0.00000 ; methylguanidinium ion
3315 3322 3323 3331 3 30.28798 -4.81160 -25.47638 0.00000 0.00000 0.00000 ; imides
3316 3315 3322 3323 3 33.20422 0.00000 -33.20422 0.00000 0.00000 0.00000 ; methylguanidinium ion
3317 1288 1287 1286 3 1.58992 4.76976 0.00000 -6.35968 0.00000 0.00000
3317 1288 1287 1289 3 1.58992 4.76976 0.00000 -6.35968 0.00000 0.00000
3317 1288 1287 1290 3 1.58992 4.76976 0.00000 -6.35968 0.00000 0.00000
3322 3315 3316 3317 3 33.20422 0.00000 -33.20422 0.00000 0.00000 0.00000 ; methylguanidinium ion
3322 3315 3316 3320 3 20.50160 0.00000 -20.50160 0.00000 0.00000 0.00000 ; imides
3322 3323 3331 3332 3 30.28798 -4.81160 -25.47638 0.00000 0.00000 0.00000 ; imides
3323 3331 3332 3314 3 30.28798 -4.81160 -25.47638 0.00000 0.00000 0.00000 ; imides
3323 3331 3332 3333 3 33.20422 0.00000 -33.20422 0.00000 0.00000 0.00000 ; methylguanidinium ion
3324 3323 3331 3332 3 33.20422 0.00000 -33.20422 0.00000 0.00000 0.00000 ; methylguanidinium ion
3325 3326 4692 4691 3 1.58992 4.76976 0.00000 -6.35968 0.00000 0.00000
3325 3326 4692 4693 3 1.58992 4.76976 0.00000 -6.35968 0.00000 0.00000
3325 3326 4692 4694 3 1.58992 4.76976 0.00000 -6.35968 0.00000 0.00000
3326 4692 4691 4690 3 1.78866 3.49154 0.53555 -5.81576 0.00000 0.00000
3326 4692 4691 4695 3 -1.26775 3.02085 1.74473 -3.49782 0.00000 0.00000
3331 3323 3324 3325 3 33.20422 0.00000 -33.20422 0.00000 0.00000 0.00000 ; methylguanidinium ion
3331 3323 3324 3329 3 20.50160 0.00000 -20.50160 0.00000 0.00000 0.00000 ; imides
3332 3314 3315 3316 3 33.20422 0.00000 -33.20422 0.00000 0.00000 0.00000 ; methylguanidinium ion
3332 3314 3315 3322 3 30.28798 -4.81160 -25.47638 0.00000 0.00000 0.00000 ; imides
3334 3335 9282 9281 3 1.58992 4.76976 0.00000 -6.35968 0.00000 0.00000
3334 3335 9282 9283 3 1.58992 4.76976 0.00000 -6.35968 0.00000 0.00000
3334 3335 9282 9284 3 1.58992 4.76976 0.00000 -6.35968 0.00000 0.00000
3335 9282 9281 9280 3 1.78866 3.49154 0.53555 -5.81576 0.00000 0.00000
3335 9282 9281 9285 3 -1.26775 3.02085 1.74473 -3.49782 0.00000 0.00000
3340 3341 3350 3351 3 30.28798 -4.81160 -25.47638 0.00000 0.00000 0.00000 ; imides
3340 3361 3362 3363 3 33.20422 0.00000 -33.20422 0.00000 0.00000 0.00000 ; methylguanidinium ion
3340 3361 3362 3367 3 20.50160 0.00000 -20.50160 0.00000 0.00000 0.00000 ; imides
3341 3340 3361 3360 3 30.28798 -4.81160 -25.47638 0.00000 0.00000 0.00000 ; imides
3341 3340 3361 3362 3 33.20422 0.00000 -33.20422 0.00000 0.00000 0.00000 ; methylguanidinium ion
3341 3350 3351 3352 3 33.20422 0.00000 -33.20422 0.00000 0.00000 0.00000 ; methylguanidinium ion
3341 3350 3351 3360 3 30.28798 -4.81160 -25.47638 0.00000 0.00000 0.00000 ; imides
3342 3341 3350 3351 3 33.20422 0.00000 -33.20422 0.00000 0.00000 0.00000 ; methylguanidinium ion
3350 3341 3342 3343 3 33.20422 0.00000 -33.20422 0.00000 0.00000 0.00000 ; methylguanidinium ion
3350 3341 3342 3348 3 20.50160 0.00000 -20.50160 0.00000 0.00000 0.00000 ; imides
3350 3351 3360 3361 3 30.28798 -4.81160 -25.47638 0.00000 0.00000 0.00000 ; imides
3351 3360 3361 3340 3 30.28798 -4.81160 -25.47638 0.00000 0.00000 0.00000 ; imides
3351 3360 3361 3362 3 33.20422 0.00000 -33.20422 0.00000 0.00000 0.00000 ; methylguanidinium ion
3352 3351 3360 3361 3 33.20422 0.00000 -33.20422 0.00000 0.00000 0.00000 ; methylguanidinium ion
3360 3351 3352 3353 3 33.20422 0.00000 -33.20422 0.00000 0.00000 0.00000 ; methylguanidinium ion
3360 3351 3352 3358 3 20.50160 0.00000 -20.50160 0.00000 0.00000 0.00000 ; imides
3361 3340 3341 3342 3 33.20422 0.00000 -33.20422 0.00000 0.00000 0.00000 ; methylguanidinium ion
3361 3340 3341 3350 3 30.28798 -4.81160 -25.47638 0.00000 0.00000 0.00000 ; imides
3363 3364 7469 7468 3 1.58992 4.76976 0.00000 -6.35968 0.00000 0.00000
3363 3364 7469 7470 3 1.58992 4.76976 0.00000 -6.35968 0.00000 0.00000
3363 3364 7469 7471 3 1.58992 4.76976 0.00000 -6.35968 0.00000 0.00000
3364 7469 7468 7467 3 1.78866 3.49154 0.53555 -5.81576 0.00000 0.00000
3364 7469 7468 7472 3 -1.26775 3.02085 1.74473 -3.49782 0.00000 0.00000
3369 3370 3378 3379 3 30.28798 -4.81160 -25.47638 0.00000 0.00000 0.00000 ; imides
3369 3389 3390 3391 3 33.20422 0.00000 -33.20422 0.00000 0.00000 0.00000 ; methylguanidinium ion
3369 3389 3390 3395 3 20.50160 0.00000 -20.50160 0.00000 0.00000 0.00000 ; imides
3370 3369 3389 3388 3 30.28798 -4.81160 -25.47638 0.00000 0.00000 0.00000 ; imides
3370 3369 3389 3390 3 33.20422 0.00000 -33.20422 0.00000 0.00000 0.00000 ; methylguanidinium ion
3370 3378 3379 3380 3 33.20422 0.00000 -33.20422 0.00000 0.00000 0.00000 ; methylguanidinium ion
3370 3378 3379 3388 3 30.28798 -4.81160 -25.47638 0.00000 0.00000 0.00000 ; imides
3371 3370 3378 3379 3 33.20422 0.00000 -33.20422 0.00000 0.00000 0.00000 ; methylguanidinium ion
3372 3373 4332 4331 3 1.58992 4.76976 0.00000 -6.35968 0.00000 0.00000
3372 3373 4332 4333 3 1.58992 4.76976 0.00000 -6.35968 0.00000 0.00000
3372 3373 4332 4334 3 1.58992 4.76976 0.00000 -6.35968 0.00000 0.00000
3373 4332 4331 4330 3 1.78866 3.49154 0.53555 -5.81576 0.00000 0.00000
3373 4332 4331 4335 3 -1.26775 3.02085 1.74473 -3.49782 0.00000 0.00000
3378 3370 3371 3372 3 33.20422 0.00000 -33.20422 0.00000 0.00000 0.00000 ; methylguanidinium ion
3378 3370 3371 3376 3 20.50160 0.00000 -20.50160 0.00000 0.00000 0.00000 ; imides
3378 3379 3388 3389 3 30.28798 -4.81160 -25.47638 0.00000 0.00000 0.00000 ; imides
3379 3388 3389 3369 3 30.28798 -4.81160 -25.47638 0.00000 0.00000 0.00000 ; imides
3379 3388 3389 3390 3 33.20422 0.00000 -33.20422 0.00000 0.00000 0.00000 ; methylguanidinium ion
3380 3379 3388 3389 3 33.20422 0.00000 -33.20422 0.00000 0.00000 0.00000 ; methylguanidinium ion
3388 3379 3380 3381 3 33.20422 0.00000 -33.20422 0.00000 0.00000 0.00000 ; methylguanidinium ion
3388 3379 3380 3386 3 20.50160 0.00000 -20.50160 0.00000 0.00000 0.00000 ; imides
3389 3369 3370 3371 3 33.20422 0.00000 -33.20422 0.00000 0.00000 0.00000 ; methylguanidinium ion
3389 3369 3370 3378 3 30.28798 -4.81160 -25.47638 0.00000 0.00000 0.00000 ; imides
3391 3392 8828 8827 3 1.58992 4.76976 0.00000 -6.35968 0.00000 0.00000
3391 3392 8828 8829 3 1.58992 4.76976 0.00000 -6.35968 0.00000 0.00000
3391 3392 8828 8830 3 1.58992 4.76976 0.00000 -6.35968 0.00000 0.00000
3392 8828 8827 8826 3 1.78866 3.49154 0.53555 -5.81576 0.00000 0.00000
3392 8828 8827 8831 3 -1.26775 3.02085 1.74473 -3.49782 0.00000 0.00000
3397 3398 3406 3407 3 30.28798 -4.81160 -25.47638 0.00000 0.00000 0.00000 ; imides
3397 3416 3417 3418 3 33.20422 0.00000 -33.20422 0.00000 0.00000 0.00000 ; methylguanidinium ion
3397 3416 3417 3422 3 20.50160 0.00000 -20.50160 0.00000 0.00000 0.00000 ; imides
3398 3397 3416 3415 3 30.28798 -4.81160 -25.47638 0.00000 0.00000 0.00000 ; imides
3398 3397 3416 3417 3 33.20422 0.00000 -33.20422 0.00000 0.00000 0.00000 ; methylguanidinium ion
3398 3406 3407 3408 3 33.20422 0.00000 -33.20422 0.00000 0.00000 0.00000 ; methylguanidinium ion
3398 3406 3407 3415 3 30.28798 -4.81160 -25.47638 0.00000 0.00000 0.00000 ; imides
3399 3398 3406 3407 3 33.20422 0.00000 -33.20422 0.00000 0.00000 0.00000 ; methylguanidinium ion
3400 3401 11384 11383 3 1.58992 4.76976 0.00000 -6.35968 0.00000 0.00000
3400 3401 11384 11385 3 1.58992 4.76976 0.00000 -6.35968 0.00000 0.00000
3400 3401 11384 11386 3 1.58992 4.76976 0.00000 -6.35968 0.00000 0.00000
3401 11384 11383 11382 3 1.78866 3.49154 0.53555 -5.81576 0.00000 0.00000
3401 11384 11383 11387 3 -1.26775 3.02085 1.74473 -3.49782 0.00000 0.00000
3406 3398 3399 3400 3 33.20422 0.00000 -33.20422 0.00000 0.00000 0.00000 ; methylguanidinium ion
3406 3398 3399 3404 3 20.50160 0.00000 -20.50160 0.00000 0.00000 0.00000 ; imides
3406 3407 3415 3416 3 30.28798 -4.81160 -25.47638 0.00000 0.00000 0.00000 ; imides
3407 3415 3416 3397 3 30.28798 -4.81160 -25.47638 0.00000 0.00000 0.00000 ; imides
3407 3415 3416 3417 3 33.20422 0.00000 -33.20422 0.00000 0.00000 0.00000 ; methylguanidinium ion
3408 3407 3415 3416 3 33.20422 0.00000 -33.20422 0.00000 0.00000 0.00000 ; methylguanidinium ion
3409 3410 9106 9105 3 1.58992 4.76976 0.00000 -6.35968 0.00000 0.00000
3409 3410 9106 9107 3 1.58992 4.76976 0.00000 -6.35968 0.00000 0.00000
3409 3410 9106 9108 3 1.58992 4.76976 0.00000 -6.35968 0.00000 0.00000
3410 9106 9105 9104 3 1.78866 3.49154 0.53555 -5.81576 0.00000 0.00000
3410 9106 9105 9109 3 -1.26775 3.02085 1.74473 -3.49782 0.00000 0.00000
3415 3407 3408 3409 3 33.20422 0.00000 -33.20422 0.00000 0.00000 0.00000 ; methylguanidinium ion
3415 3407 3408 3413 3 20.50160 0.00000 -20.50160 0.00000 0.00000 0.00000 ; imides
3416 3397 3398 3399 3 33.20422 0.00000 -33.20422 0.00000 0.00000 0.00000 ; methylguanidinium ion
3416 3397 3398 3406 3 30.28798 -4.81160 -25.47638 0.00000 0.00000 0.00000 ; imides
3418 3419 6669 6668 3 1.58992 4.76976 0.00000 -6.35968 0.00000 0.00000
3418 3419 6669 6670 3 1.58992 4.76976 0.00000 -6.35968 0.00000 0.00000
3418 3419 6669 6671 3 1.58992 4.76976 0.00000 -6.35968 0.00000 0.00000
3419 6669 6668 6667 3 1.78866 3.49154 0.53555 -5.81576 0.00000 0.00000
3419 6669 6668 6672 3 -1.26775 3.02085 1.74473 -3.49782 0.00000 0.00000
3424 3425 3433 3434 3 30.28798 -4.81160 -25.47638 0.00000 0.00000 0.00000 ; imides
3424 3443 3444 3445 3 33.20422 0.00000 -33.20422 0.00000 0.00000 0.00000 ; methylguanidinium ion
3424 3443 3444 3449 3 20.50160 0.00000 -20.50160 0.00000 0.00000 0.00000 ; imides
3425 3424 3443 3442 3 30.28798 -4.81160 -25.47638 0.00000 0.00000 0.00000 ; imides
3425 3424 3443 3444 3 33.20422 0.00000 -33.20422 0.00000 0.00000 0.00000 ; methylguanidinium ion
3425 3433 3434 3435 3 33.20422 0.00000 -33.20422 0.00000 0.00000 0.00000 ; methylguanidinium ion
3425 3433 3434 3442 3 30.28798 -4.81160 -25.47638 0.00000 0.00000 0.00000 ; imides
3426 3425 3433 3434 3 33.20422 0.00000 -33.20422 0.00000 0.00000 0.00000 ; methylguanidinium ion
3427 3428 6934 6933 3 1.58992 4.76976 0.00000 -6.35968 0.00000 0.00000
3427 3428 6934 6935 3 1.58992 4.76976 0.00000 -6.35968 0.00000 0.00000
3427 3428 6934 6936 3 1.58992 4.76976 0.00000 -6.35968 0.00000 0.00000
3428 6934 6933 6932 3 1.78866 3.49154 0.53555 -5.81576 0.00000 0.00000
3428 6934 6933 6937 3 -1.26775 3.02085 1.74473 -3.49782 0.00000 0.00000
3433 3425 3426 3427 3 33.20422 0.00000 -33.20422 0.00000 0.00000 0.00000 ; methylguanidinium ion
3433 3425 3426 3431 3 20.50160 0.00000 -20.50160 0.00000 0.00000 0.00000 ; imides
3433 3434 3442 3443 3 30.28798 -4.81160 -25.47638 0.00000 0.00000 0.00000 ; imides
3434 3442 3443 3424 3 30.28798 -4.81160 -25.47638 0.00000 0.00000 0.00000 ; imides
3434 3442 3443 3444 3 33.20422 0.00000 -33.20422 0.00000 0.00000 0.00000 ; methylguanidinium ion
3435 3434 3442 3443 3 33.20422 0.00000 -33.20422 0.00000 0.00000 0.00000 ; methylguanidinium ion
3436 3437 8465 8464 3 1.58992 4.76976 0.00000 -6.35968 0.00000 0.00000
3436 3437 8465 8466 3 1.58992 4.76976 0.00000 -6.35968 0.00000 0.00000
3436 3437 8465 8467 3 1.58992 4.76976 0.00000 -6.35968 0.00000 0.00000
3437 8465 8464 8463 3 1.78866 3.49154 0.53555 -5.81576 0.00000 0.00000
3437 8465 8464 8468 3 -1.26775 3.02085 1.74473 -3.49782 0.00000 0.00000
3442 3434 3435 3436 3 33.20422 0.00000 -33.20422 0.00000 0.00000 0.00000 ; methylguanidinium ion
3442 3434 3435 3440 3 20.50160 0.00000 -20.50160 0.00000 0.00000 0.00000 ; imides
3443 3424 3425 3426 3 33.20422 0.00000 -33.20422 0.00000 0.00000 0.00000 ; methylguanidinium ion
3443 3424 3425 3433 3 30.28798 -4.81160 -25.47638 0.00000 0.00000 0.00000 ; imides
3445 3446 11686 11685 3 1.58992 4.76976 0.00000 -6.35968 0.00000 0.00000
3445 3446 11686 11687 3 1.58992 4.76976 0.00000 -6.35968 0.00000 0.00000
3445 3446 11686 11688 3 1.58992 4.76976 0.00000 -6.35968 0.00000 0.00000
3446 11686 11685 11684 3 1.78866 3.49154 0.53555 -5.81576 0.00000 0.00000
3446 11686 11685 11689 3 -1.26775 3.02085 1.74473 -3.49782 0.00000 0.00000
3451 3452 3460 3461 3 30.28798 -4.81160 -25.47638 0.00000 0.00000 0.00000 ; imides
3451 3471 3472 3473 3 33.20422 0.00000 -33.20422 0.00000 0.00000 0.00000 ; methylguanidinium ion
3451 3471 3472 3477 3 20.50160 0.00000 -20.50160 0.00000 0.00000 0.00000 ; imides
3452 3451 3471 3470 3 30.28798 -4.81160 -25.47638 0.00000 0.00000 0.00000 ; imides
3452 3451 3471 3472 3 33.20422 0.00000 -33.20422 0.00000 0.00000 0.00000 ; methylguanidinium ion
3452 3460 3461 3462 3 33.20422 0.00000 -33.20422 0.00000 0.00000 0.00000 ; methylguanidinium ion
3452 3460 3461 3470 3 30.28798 -4.81160 -25.47638 0.00000 0.00000 0.00000 ; imides
3453 3452 3460 3461 3 33.20422 0.00000 -33.20422 0.00000 0.00000 0.00000 ; methylguanidinium ion
3454 3455 7134 7133 3 1.58992 4.76976 0.00000 -6.35968 0.00000 0.00000
3454 3455 7134 7135 3 1.58992 4.76976 0.00000 -6.35968 0.00000 0.00000
3454 3455 7134 7136 3 1.58992 4.76976 0.00000 -6.35968 0.00000 0.00000
3455 7134 7133 7132 3 1.78866 3.49154 0.53555 -5.81576 0.00000 0.00000
3455 7134 7133 7137 3 -1.26775 3.02085 1.74473 -3.49782 0.00000 0.00000
3460 3452 3453 3454 3 33.20422 0.00000 -33.20422 0.00000 0.00000 0.00000 ; methylguanidinium ion
3460 3452 3453 3458 3 20.50160 0.00000 -20.50160 0.00000 0.00000 0.00000 ; imides
3460 3461 3470 3471 3 30.28798 -4.81160 -25.47638 0.00000 0.00000 0.00000 ; imides
3461 3470 3471 3451 3 30.28798 -4.81160 -25.47638 0.00000 0.00000 0.00000 ; imides
3461 3470 3471 3472 3 33.20422 0.00000 -33.20422 0.00000 0.00000 0.00000 ; methylguanidinium ion
3462 3461 3470 3471 3 33.20422 0.00000 -33.20422 0.00000 0.00000 0.00000 ; methylguanidinium ion
3470 3461 3462 3463 3 33.20422 0.00000 -33.20422 0.00000 0.00000 0.00000 ; methylguanidinium ion
3470 3461 3462 3468 3 20.50160 0.00000 -20.50160 0.00000 0.00000 0.00000 ; imides
3471 3451 3452 3453 3 33.20422 0.00000 -33.20422 0.00000 0.00000 0.00000 ; methylguanidinium ion
3471 3451 3452 3460 3 30.28798 -4.81160 -25.47638 0.00000 0.00000 0.00000 ; imides
3473 3474 6362 6361 3 1.58992 4.76976 0.00000 -6.35968 0.00000 0.00000
3473 3474 6362 6363 3 1.58992 4.76976 0.00000 -6.35968 0.00000 0.00000
3473 3474 6362 6364 3 1.58992 4.76976 0.00000 -6.35968 0.00000 0.00000
3474 6362 6361 6360 3 1.78866 3.49154 0.53555 -5.81576 0.00000 0.00000
3474 6362 6361 6365 3 -1.26775 3.02085 1.74473 -3.49782 0.00000 0.00000
3479 3480 3488 3489 3 30.28798 -4.81160 -25.47638 0.00000 0.00000 0.00000 ; imides
3479 3498 3499 3500 3 33.20422 0.00000 -33.20422 0.00000 0.00000 0.00000 ; methylguanidinium ion
3479 3498 3499 3504 3 20.50160 0.00000 -20.50160 0.00000 0.00000 0.00000 ; imides
3480 3479 3498 3497 3 30.28798 -4.81160 -25.47638 0.00000 0.00000 0.00000 ; imides
3480 3479 3498 3499 3 33.20422 0.00000 -33.20422 0.00000 0.00000 0.00000 ; methylguanidinium ion
3480 3488 3489 3490 3 33.20422 0.00000 -33.20422 0.00000 0.00000 0.00000 ; methylguanidinium ion
3480 3488 3489 3497 3 30.28798 -4.81160 -25.47638 0.00000 0.00000 0.00000 ; imides
3481 3480 3488 3489 3 33.20422 0.00000 -33.20422 0.00000 0.00000 0.00000 ; methylguanidinium ion
3482 3483 5303 5302 3 1.58992 4.76976 0.00000 -6.35968 0.00000 0.00000
3482 3483 5303 5304 3 1.58992 4.76976 0.00000 -6.35968 0.00000 0.00000
3482 3483 5303 5305 3 1.58992 4.76976 0.00000 -6.35968 0.00000 0.00000
3483 5303 5302 5301 3 1.78866 3.49154 0.53555 -5.81576 0.00000 0.00000
3483 5303 5302 5306 3 -1.26775 3.02085 1.74473 -3.49782 0.00000 0.00000
3488 3480 3481 3482 3 33.20422 0.00000 -33.20422 0.00000 0.00000 0.00000 ; methylguanidinium ion
3488 3480 3481 3486 3 20.50160 0.00000 -20.50160 0.00000 0.00000 0.00000 ; imides
3488 3489 3497 3498 3 30.28798 -4.81160 -25.47638 0.00000 0.00000 0.00000 ; imides
3489 3497 3498 3479 3 30.28798 -4.81160 -25.47638 0.00000 0.00000 0.00000 ; imides
3489 3497 3498 3499 3 33.20422 0.00000 -33.20422 0.00000 0.00000 0.00000 ; methylguanidinium ion
3490 3489 3497 3498 3 33.20422 0.00000 -33.20422 0.00000 0.00000 0.00000 ; methylguanidinium ion
3491 3492 11849 11848 3 1.58992 4.76976 0.00000 -6.35968 0.00000 0.00000
3491 3492 11849 11850 3 1.58992 4.76976 0.00000 -6.35968 0.00000 0.00000
3491 3492 11849 11851 3 1.58992 4.76976 0.00000 -6.35968 0.00000 0.00000
3492 11849 11848 11847 3 1.78866 3.49154 0.53555 -5.81576 0.00000 0.00000
3492 11849 11848 11852 3 -1.26775 3.02085 1.74473 -3.49782 0.00000 0.00000
3497 3489 3490 3491 3 33.20422 0.00000 -33.20422 0.00000 0.00000 0.00000 ; methylguanidinium ion
3497 3489 3490 3495 3 20.50160 0.00000 -20.50160 0.00000 0.00000 0.00000 ; imides
3498 3479 3480 3481 3 33.20422 0.00000 -33.20422 0.00000 0.00000 0.00000 ; methylguanidinium ion
3498 3479 3480 3488 3 30.28798 -4.81160 -25.47638 0.00000 0.00000 0.00000 ; imides
3500 3501 12578 12577 3 1.58992 4.76976 0.00000 -6.35968 0.00000 0.00000
3500 3501 12578 12579 3 1.58992 4.76976 0.00000 -6.35968 0.00000 0.00000
3500 3501 12578 12580 3 1.58992 4.76976 0.00000 -6.35968 0.00000 0.00000
3501 12578 12577 12576 3 1.78866 3.49154 0.53555 -5.81576 0.00000 0.00000
3501 12578 12577 12581 3 -1.26775 3.02085 1.74473 -3.49782 0.00000 0.00000
3506 3507 3514 3515 3 30.28798 -4.81160 -25.47638 0.00000 0.00000 0.00000 ; imides
3506 3524 3525 3526 3 33.20422 0.00000 -33.20422 0.00000 0.00000 0.00000 ; methylguanidinium ion
3506 3524 3525 3530 3 20.50160 0.00000 -20.50160 0.00000 0.00000 0.00000 ; imides
3507 3506 3524 3523 3 30.28798 -4.81160 -25.47638 0.00000 0.00000 0.00000 ; imides
3507 3506 3524 3525 3 33.20422 0.00000 -33.20422 0.00000 0.00000 0.00000 ; methylguanidinium ion
3507 3514 3515 3516 3 33.20422 0.00000 -33.20422 0.00000 0.00000 0.00000 ; methylguanidinium ion
3507 3514 3515 3523 3 30.28798 -4.81160 -25.47638 0.00000 0.00000 0.00000 ; imides
3508 3507 3514 3515 3 33.20422 0.00000 -33.20422 0.00000 0.00000 0.00000 ; methylguanidinium ion
3509 207 206 205 3 1.58992 4.76976 0.00000 -6.35968 0.00000 0.00000
3509 207 206 208 3 1.58992 4.76976 0.00000 -6.35968 0.00000 0.00000
3509 207 206 209 3 1.58992 4.76976 0.00000 -6.35968 0.00000 0.00000
3514 3507 3508 3509 3 33.20422 0.00000 -33.20422 0.00000 0.00000 0.00000 ; methylguanidinium ion
3514 3507 3508 3512 3 20.50160 0.00000 -20.50160 0.00000 0.00000 0.00000 ; imides
3514 3515 3523 3524 3 30.28798 -4.81160 -25.47638 0.00000 0.00000 0.00000 ; imides
3515 3523 3524 3506 3 30.28798 -4.81160 -25.47638 0.00000 0.00000 0.00000 ; imides
3515 3523 3524 3525 3 33.20422 0.00000 -33.20422 0.00000 0.00000 0.00000 ; methylguanidinium ion
3516 3515 3523 3524 3 33.20422 0.00000 -33.20422 0.00000 0.00000 0.00000 ; methylguanidinium ion
3517 3518 11866 11865 3 1.58992 4.76976 0.00000 -6.35968 0.00000 0.00000
3517 3518 11866 11867 3 1.58992 4.76976 0.00000 -6.35968 0.00000 0.00000
3517 3518 11866 11868 3 1.58992 4.76976 0.00000 -6.35968 0.00000 0.00000
3518 11866 11865 11864 3 1.78866 3.49154 0.53555 -5.81576 0.00000 0.00000
3518 11866 11865 11869 3 -1.26775 3.02085 1.74473 -3.49782 0.00000 0.00000
3523 3515 3516 3517 3 33.20422 0.00000 -33.20422 0.00000 0.00000 0.00000 ; methylguanidinium ion
3523 3515 3516 3521 3 20.50160 0.00000 -20.50160 0.00000 0.00000 0.00000 ; imides
3524 3506 3507 3508 3 33.20422 0.00000 -33.20422 0.00000 0.00000 0.00000 ; methylguanidinium ion
3524 3506 3507 3514 3 30.28798 -4.81160 -25.47638 0.00000 0.00000 0.00000 ; imides
3526 3527 6297 6296 3 1.58992 4.76976 0.00000 -6.35968 0.00000 0.00000
3526 3527 6297 6298 3 1.58992 4.76976 0.00000 -6.35968 0.00000 0.00000
3526 3527 6297 6299 3 1.58992 4.76976 0.00000 -6.35968 0.00000 0.00000
3527 6297 6296 6295 3 1.78866 3.49154 0.53555 -5.81576 0.00000 0.00000
3527 6297 6296 6300 3 -1.26775 3.02085 1.74473 -3.49782 0.00000 0.00000
3532 3533 3541 3542 3 30.28798 -4.81160 -25.47638 0.00000 0.00000 0.00000 ; imides
3532 3551 3552 3553 3 33.20422 0.00000 -33.20422 0.00000 0.00000 0.00000 ; methylguanidinium ion
3532 3551 3552 3557 3 20.50160 0.00000 -20.50160 0.00000 0.00000 0.00000 ; imides
3533 3532 3551 3550 3 30.28798 -4.81160 -25.47638 0.00000 0.00000 0.00000 ; imides
3533 3532 3551 3552 3 33.20422 0.00000 -33.20422 0.00000 0.00000 0.00000 ; methylguanidinium ion
3533 3541 3542 3543 3 33.20422 0.00000 -33.20422 0.00000 0.00000 0.00000 ; methylguanidinium ion
3533 3541 3542 3550 3 30.28798 -4.81160 -25.47638 0.00000 0.00000 0.00000 ; imides
3534 3533 3541 3542 3 33.20422 0.00000 -33.20422 0.00000 0.00000 0.00000 ; methylguanidinium ion
3535 3536 5639 5638 3 1.58992 4.76976 0.00000 -6.35968 0.00000 0.00000
3535 3536 5639 5640 3 1.58992 4.76976 0.00000 -6.35968 0.00000 0.00000
3535 3536 5639 5641 3 1.58992 4.76976 0.00000 -6.35968 0.00000 0.00000
3536 5639 5638 5637 3 1.78866 3.49154 0.53555 -5.81576 0.00000 0.00000
3536 5639 5638 5642 3 -1.26775 3.02085 1.74473 -3.49782 0.00000 0.00000
3541 3533 3534 3535 3 33.20422 0.00000 -33.20422 0.00000 0.00000 0.00000 ; methylguanidinium ion
3541 3533 3534 3539 3 20.50160 0.00000 -20.50160 0.00000 0.00000 0.00000 ; imides
3541 3542 3550 3551 3 30.28798 -4.81160 -25.47638 0.00000 0.00000 0.00000 ; imides
3542 3550 3551 3532 3 30.28798 -4.81160 -25.47638 0.00000 0.00000 0.00000 ; imides
3542 3550 3551 3552 3 33.20422 0.00000 -33.20422 0.00000 0.00000 0.00000 ; methylguanidinium ion
3543 3542 3550 3551 3 33.20422 0.00000 -33.20422 0.00000 0.00000 0.00000 ; methylguanidinium ion
3544 3545 7653 7652 3 1.58992 4.76976 0.00000 -6.35968 0.00000 0.00000
3544 3545 7653 7654 3 1.58992 4.76976 0.00000 -6.35968 0.00000 0.00000
3544 3545 7653 7655 3 1.58992 4.76976 0.00000 -6.35968 0.00000 0.00000
3545 7653 7652 7651 3 1.78866 3.49154 0.53555 -5.81576 0.00000 0.00000
3545 7653 7652 7656 3 -1.26775 3.02085 1.74473 -3.49782 0.00000 0.00000
3550 3542 3543 3544 3 33.20422 0.00000 -33.20422 0.00000 0.00000 0.00000 ; methylguanidinium ion
3550 3542 3543 3548 3 20.50160 0.00000 -20.50160 0.00000 0.00000 0.00000 ; imides
3551 3532 3533 3534 3 33.20422 0.00000 -33.20422 0.00000 0.00000 0.00000 ; methylguanidinium ion
3551 3532 3533 3541 3 30.28798 -4.81160 -25.47638 0.00000 0.00000 0.00000 ; imides
3553 3554 3571 3570 3 1.58992 4.76976 0.00000 -6.35968 0.00000 0.00000
3553 3554 3571 3572 3 1.58992 4.76976 0.00000 -6.35968 0.00000 0.00000
3553 3554 3571 3573 3 1.58992 4.76976 0.00000 -6.35968 0.00000 0.00000
3554 3571 3570 3569 3 1.78866 3.49154 0.53555 -5.81576 0.00000 0.00000
3554 3571 3570 3574 3 -1.26775 3.02085 1.74473 -3.49782 0.00000 0.00000
3559 3560 3568 3569 3 30.28798 -4.81160 -25.47638 0.00000 0.00000 0.00000 ; imides
3559 3577 3578 3579 3 33.20422 0.00000 -33.20422 0.00000 0.00000 0.00000 ; methylguanidinium ion
3559 3577 3578 3582 3 20.50160 0.00000 -20.50160 0.00000 0.00000 0.00000 ; imides
3560 3559 3577 3576 3 30.28798 -4.81160 -25.47638 0.00000 0.00000 0.00000 ; imides
3560 3559 3577 3578 3 33.20422 0.00000 -33.20422 0.00000 0.00000 0.00000 ; methylguanidinium ion
3560 3568 3569 3570 3 33.20422 0.00000 -33.20422 0.00000 0.00000 0.00000 ; methylguanidinium ion
3560 3568 3569 3576 3 30.28798 -4.81160 -25.47638 0.00000 0.00000 0.00000 ; imides
3561 3560 3568 3569 3 33.20422 0.00000 -33.20422 0.00000 0.00000 0.00000 ; methylguanidinium ion
3562 3563 6645 6644 3 1.58992 4.76976 0.00000 -6.35968 0.00000 0.00000
3562 3563 6645 6646 3 1.58992 4.76976 0.00000 -6.35968 0.00000 0.00000
3562 3563 6645 6647 3 1.58992 4.76976 0.00000 -6.35968 0.00000 0.00000
3563 6645 6644 6643 3 1.78866 3.49154 0.53555 -5.81576 0.00000 0.00000
3563 6645 6644 6648 3 -1.26775 3.02085 1.74473 -3.49782 0.00000 0.00000
3568 3560 3561 3562 3 33.20422 0.00000 -33.20422 0.00000 0.00000 0.00000 ; methylguanidinium ion
3568 3560 3561 3566 3 20.50160 0.00000 -20.50160 0.00000 0.00000 0.00000 ; imides
3568 3569 3576 3577 3 30.28798 -4.81160 -25.47638 0.00000 0.00000 0.00000 ; imides
3569 3576 3577 3559 3 30.28798 -4.81160 -25.47638 0.00000 0.00000 0.00000 ; imides
3569 3576 3577 3578 3 33.20422 0.00000 -33.20422 0.00000 0.00000 0.00000 ; methylguanidinium ion
3570 3569 3576 3577 3 33.20422 0.00000 -33.20422 0.00000 0.00000 0.00000 ; methylguanidinium ion
3571 3554 3553 3552 3 1.58992 4.76976 0.00000 -6.35968 0.00000 0.00000
3571 3554 3553 3555 3 1.58992 4.76976 0.00000 -6.35968 0.00000 0.00000
3571 3554 3553 3556 3 1.58992 4.76976 0.00000 -6.35968 0.00000 0.00000
3576 3569 3570 3571 3 33.20422 0.00000 -33.20422 0.00000 0.00000 0.00000 ; methylguanidinium ion
3576 3569 3570 3574 3 20.50160 0.00000 -20.50160 0.00000 0.00000 0.00000 ; imides
3577 3559 3560 3561 3 33.20422 0.00000 -33.20422 0.00000 0.00000 0.00000 ; methylguanidinium ion
3577 3559 3560 3568 3 30.28798 -4.81160 -25.47638 0.00000 0.00000 0.00000 ; imides
3579 782 781 780 3 1.58992 4.76976 0.00000 -6.35968 0.00000 0.00000
3579 782 781 783 3 1.58992 4.76976 0.00000 -6.35968 0.00000 0.00000
3579 782 781 784 3 1.58992 4.76976 0.00000 -6.35968 0.00000 0.00000
3584 3585 3593 3594 3 30.28798 -4.81160 -25.47638 0.00000 0.00000 0.00000 ; imides
3584 3602 3603 3604 3 33.20422 0.00000 -33.20422 0.00000 0.00000 0.00000 ; methylguanidinium ion
3584 3602 3603 3607 3 20.50160 0.00000 -20.50160 0.00000 0.00000 0.00000 ; imides
3585 3584 3602 3601 3 30.28798 -4.81160 -25.47638 0.00000 0.00000 0.00000 ; imides
3585 3584 3602 3603 3 33.20422 0.00000 -33.20422 0.00000 0.00000 0.00000 ; methylguanidinium ion
3585 3593 3594 3595 3 33.20422 0.00000 -33.20422 0.00000 0.00000 0.00000 ; methylguanidinium ion
3585 3593 3594 3601 3 30.28798 -4.81160 -25.47638 0.00000 0.00000 0.00000 ; imides
3586 3585 3593 3594 3 33.20422 0.00000 -33.20422 0.00000 0.00000 0.00000 ; methylguanidinium ion
3587 3588 8185 8184 3 1.58992 4.76976 0.00000 -6.35968 0.00000 0.00000
3587 3588 8185 8186 3 1.58992 4.76976 0.00000 -6.35968 0.00000 0.00000
3587 3588 8185 8187 3 1.58992 4.76976 0.00000 -6.35968 0.00000 0.00000
3588 8185 8184 8183 3 1.78866 3.49154 0.53555 -5.81576 0.00000 0.00000
3588 8185 8184 8188 3 -1.26775 3.02085 1.74473 -3.49782 0.00000 0.00000
3593 3585 3586 3587 3 33.20422 0.00000 -33.20422 0.00000 0.00000 0.00000 ; methylguanidinium ion
3593 3585 3586 3591 3 20.50160 0.00000 -20.50160 0.00000 0.00000 0.00000 ; imides
3593 3594 3601 3602 3 30.28798 -4.81160 -25.47638 0.00000 0.00000 0.00000 ; imides
3594 3601 3602 3584 3 30.28798 -4.81160 -25.47638 0.00000 0.00000 0.00000 ; imides
3594 3601 3602 3603 3 33.20422 0.00000 -33.20422 0.00000 0.00000 0.00000 ; methylguanidinium ion
3595 3594 3601 3602 3 33.20422 0.00000 -33.20422 0.00000 0.00000 0.00000 ; methylguanidinium ion
3596 1532 1531 1530 3 1.58992 4.76976 0.00000 -6.35968 0.00000 0.00000
3596 1532 1531 1533 3 1.58992 4.76976 0.00000 -6.35968 0.00000 0.00000
3596 1532 1531 1534 3 1.58992 4.76976 0.00000 -6.35968 0.00000 0.00000
3601 3594 3595 3596 3 33.20422 0.00000 -33.20422 0.00000 0.00000 0.00000 ; methylguanidinium ion
3601 3594 3595 3599 3 20.50160 0.00000 -20.50160 0.00000 0.00000 0.00000 ; imides
3602 3584 3585 3586 3 33.20422 0.00000 -33.20422 0.00000 0.00000 0.00000 ; methylguanidinium ion
3602 3584 3585 3593 3 30.28798 -4.81160 -25.47638 0.00000 0.00000 0.00000 ; imides
3604 1496 1495 1494 3 1.58992 4.76976 0.00000 -6.35968 0.00000 0.00000
3604 1496 1495 1497 3 1.58992 4.76976 0.00000 -6.35968 0.00000 0.00000
3604 1496 1495 1498 3 1.58992 4.76976 0.00000 -6.35968 0.00000 0.00000
3609 3610 3618 3619 3 30.28798 -4.81160 -25.47638 0.00000 0.00000 0.00000 ; imides
3609 3627 3628 3629 3 33.20422 0.00000 -33.20422 0.00000 0.00000 0.00000 ; methylguanidinium ion
3609 3627 3628 3633 3 20.50160 0.00000 -20.50160 0.00000 0.00000 0.00000 ; imides
3610 3609 3627 3626 3 30.28798 -4.81160 -25.47638 0.00000 0.00000 0.00000 ; imides
3610 3609 3627 3628 3 33.20422 0.00000 -33.20422 0.00000 0.00000 0.00000 ; methylguanidinium ion
3610 3618 3619 3620 3 33.20422 0.00000 -33.20422 0.00000 0.00000 0.00000 ; methylguanidinium ion
3610 3618 3619 3626 3 30.28798 -4.81160 -25.47638 0.00000 0.00000 0.00000 ; imides
3611 3610 3618 3619 3 33.20422 0.00000 -33.20422 0.00000 0.00000 0.00000 ; methylguanidinium ion
3612 3613 12394 12393 3 1.58992 4.76976 0.00000 -6.35968 0.00000 0.00000
3612 3613 12394 12395 3 1.58992 4.76976 0.00000 -6.35968 0.00000 0.00000
3612 3613 12394 12396 3 1.58992 4.76976 0.00000 -6.35968 0.00000 0.00000
3613 12394 12393 12392 3 1.78866 3.49154 0.53555 -5.81576 0.00000 0.00000
3613 12394 12393 12397 3 -1.26775 3.02085 1.74473 -3.49782 0.00000 0.00000
3618 3610 3611 3612 3 33.20422 0.00000 -33.20422 0.00000 0.00000 0.00000 ; methylguanidinium ion
3618 3610 3611 3616 3 20.50160 0.00000 -20.50160 0.00000 0.00000 0.00000 ; imides
3618 3619 3626 3627 3 30.28798 -4.81160 -25.47638 0.00000 0.00000 0.00000 ; imides
3619 3626 3627 3609 3 30.28798 -4.81160 -25.47638 0.00000 0.00000 0.00000 ; imides
3619 3626 3627 3628 3 33.20422 0.00000 -33.20422 0.00000 0.00000 0.00000 ; methylguanidinium ion
3620 3619 3626 3627 3 33.20422 0.00000 -33.20422 0.00000 0.00000 0.00000 ; methylguanidinium ion
3621 2958 2957 2956 3 1.58992 4.76976 0.00000 -6.35968 0.00000 0.00000
3621 2958 2957 2959 3 1.58992 4.76976 0.00000 -6.35968 0.00000 0.00000
3621 2958 2957 2960 3 1.58992 4.76976 0.00000 -6.35968 0.00000 0.00000
3626 3619 3620 3621 3 33.20422 0.00000 -33.20422 0.00000 0.00000 0.00000 ; methylguanidinium ion
3626 3619 3620 3624 3 20.50160 0.00000 -20.50160 0.00000 0.00000 0.00000 ; imides
3627 3609 3610 3611 3 33.20422 0.00000 -33.20422 0.00000 0.00000 0.00000 ; methylguanidinium ion
3627 3609 3610 3618 3 30.28798 -4.81160 -25.47638 0.00000 0.00000 0.00000 ; imides
3629 3630 5286 5285 3 1.58992 4.76976 0.00000 -6.35968 0.00000 0.00000
3629 3630 5286 5287 3 1.58992 4.76976 0.00000 -6.35968 0.00000 0.00000
3629 3630 5286 5288 3 1.58992 4.76976 0.00000 -6.35968 0.00000 0.00000
3630 5286 5285 5284 3 1.78866 3.49154 0.53555 -5.81576 0.00000 0.00000
3630 5286 5285 5289 3 -1.26775 3.02085 1.74473 -3.49782 0.00000 0.00000
3635 3636 3643 3644 3 30.28798 -4.81160 -25.47638 0.00000 0.00000 0.00000 ; imides
3635 3653 3654 3655 3 33.20422 0.00000 -33.20422 0.00000 0.00000 0.00000 ; methylguanidinium ion
3635 3653 3654 3658 3 20.50160 0.00000 -20.50160 0.00000 0.00000 0.00000 ; imides
3636 3635 3653 3652 3 30.28798 -4.81160 -25.47638 0.00000 0.00000 0.00000 ; imides
3636 3635 3653 3654 3 33.20422 0.00000 -33.20422 0.00000 0.00000 0.00000 ; methylguanidinium ion
3636 3643 3644 3645 3 33.20422 0.00000 -33.20422 0.00000 0.00000 0.00000 ; methylguanidinium ion
3636 3643 3644 3652 3 30.28798 -4.81160 -25.47638 0.00000 0.00000 0.00000 ; imides
3637 3636 3643 3644 3 33.20422 0.00000 -33.20422 0.00000 0.00000 0.00000 ; methylguanidinium ion
3638 1101 1100 1099 3 1.58992 4.76976 0.00000 -6.35968 0.00000 0.00000
3638 1101 1100 1102 3 1.58992 4.76976 0.00000 -6.35968 0.00000 0.00000
3638 1101 1100 1103 3 1.58992 4.76976 0.00000 -6.35968 0.00000 0.00000
3643 3636 3637 3638 3 33.20422 0.00000 -33.20422 0.00000 0.00000 0.00000 ; methylguanidinium ion
3643 3636 3637 3641 3 20.50160 0.00000 -20.50160 0.00000 0.00000 0.00000 ; imides
3643 3644 3652 3653 3 30.28798 -4.81160 -25.47638 0.00000 0.00000 0.00000 ; imides
3644 3652 3653 3635 3 30.28798 -4.81160 -25.47638 0.00000 0.00000 0.00000 ; imides
3644 3652 3653 3654 3 33.20422 0.00000 -33.20422 0.00000 0.00000 0.00000 ; methylguanidinium ion
3645 3644 3652 3653 3 33.20422 0.00000 -33.20422 0.00000 0.00000 0.00000 ; methylguanidinium ion
3646 3647 10053 10052 3 1.58992 4.76976 0.00000 -6.35968 0.00000 0.00000
3646 3647 10053 10054 3 1.58992 4.76976 0.00000 -6.35968 0.00000 0.00000
3646 3647 10053 10055 3 1.58992 4.76976 0.00000 -6.35968 0.00000 0.00000
3647 10053 10052 10051 3 1.78866 3.49154 0.53555 -5.81576 0.00000 0.00000
3647 10053 10052 10056 3 -1.26775 3.02085 1.74473 -3.49782 0.00000 0.00000
3652 3644 3645 3646 3 33.20422 0.00000 -33.20422 0.00000 0.00000 0.00000 ; methylguanidinium ion
3652 3644 3645 3650 3 20.50160 0.00000 -20.50160 0.00000 0.00000 0.00000 ; imides
3653 3635 3636 3637 3 33.20422 0.00000 -33.20422 0.00000 0.00000 0.00000 ; methylguanidinium ion
3653 3635 3636 3643 3 30.28798 -4.81160 -25.47638 0.00000 0.00000 0.00000 ; imides
3655 2192 2191 2190 3 1.58992 4.76976 0.00000 -6.35968 0.00000 0.00000
3655 2192 2191 2193 3 1.58992 4.76976 0.00000 -6.35968 0.00000 0.00000
3655 2192 2191 2194 3 1.58992 4.76976 0.00000 -6.35968 0.00000 0.00000
3660 3661 3670 3671 3 30.28798 -4.81160 -25.47638 0.00000 0.00000 0.00000 ; imides
3660 3680 3681 3682 3 33.20422 0.00000 -33.20422 0.00000 0.00000 0.00000 ; methylguanidinium ion
3660 3680 3681 3686 3 20.50160 0.00000 -20.50160 0.00000 0.00000 0.00000 ; imides
3661 3660 3680 3679 3 30.28798 -4.81160 -25.47638 0.00000 0.00000 0.00000 ; imides
3661 3660 3680 3681 3 33.20422 0.00000 -33.20422 0.00000 0.00000 0.00000 ; methylguanidinium ion
3661 3670 3671 3672 3 33.20422 0.00000 -33.20422 0.00000 0.00000 0.00000 ; methylguanidinium ion
3661 3670 3671 3679 3 30.28798 -4.81160 -25.47638 0.00000 0.00000 0.00000 ; imides
3662 3661 3670 3671 3 33.20422 0.00000 -33.20422 0.00000 0.00000 0.00000 ; methylguanidinium ion
3670 3661 3662 3663 3 33.20422 0.00000 -33.20422 0.00000 0.00000 0.00000 ; methylguanidinium ion
3670 3661 3662 3668 3 20.50160 0.00000 -20.50160 0.00000 0.00000 0.00000 ; imides
3670 3671 3679 3680 3 30.28798 -4.81160 -25.47638 0.00000 0.00000 0.00000 ; imides
3671 3679 3680 3660 3 30.28798 -4.81160 -25.47638 0.00000 0.00000 0.00000 ; imides
3671 3679 3680 3681 3 33.20422 0.00000 -33.20422 0.00000 0.00000 0.00000 ; methylguanidinium ion
3672 3671 3679 3680 3 33.20422 0.00000 -33.20422 0.00000 0.00000 0.00000 ; methylguanidinium ion
3673 3674 5519 5518 3 1.58992 4.76976 0.00000 -6.35968 0.00000 0.00000
3673 3674 5519 5520 3 1.58992 4.76976 0.00000 -6.35968 0.00000 0.00000
3673 3674 5519 5521 3 1.58992 4.76976 0.00000 -6.35968 0.00000 0.00000
3674 5519 5518 5517 3 1.78866 3.49154 0.53555 -5.81576 0.00000 0.00000
3674 5519 5518 5522 3 -1.26775 3.02085 1.74473 -3.49782 0.00000 0.00000
3679 3671 3672 3673 3 33.20422 0.00000 -33.20422 0.00000 0.00000 0.00000 ; methylguanidinium ion
3679 3671 3672 3677 3 20.50160 0.00000 -20.50160 0.00000 0.00000 0.00000 ; imides
3680 3660 3661 3662 3 33.20422 0.00000 -33.20422 0.00000 0.00000 0.00000 ; methylguanidinium ion
3680 3660 3661 3670 3 30.28798 -4.81160 -25.47638 0.00000 0.00000 0.00000 ; imides
3682 3683 6109 6108 3 1.58992 4.76976 0.00000 -6.35968 0.00000 0.00000
3682 3683 6109 6110 3 1.58992 4.76976 0.00000 -6.35968 0.00000 0.00000
3682 3683 6109 6111 3 1.58992 4.76976 0.00000 -6.35968 0.00000 0.00000
3683 6109 6108 6107 3 1.78866 3.49154 0.53555 -5.81576 0.00000 0.00000
3683 6109 6108 6112 3 -1.26775 3.02085 1.74473 -3.49782 0.00000 0.00000
3688 3689 3697 3698 3 30.28798 -4.81160 -25.47638 0.00000 0.00000 0.00000 ; imides
3688 3707 3708 3709 3 33.20422 0.00000 -33.20422 0.00000 0.00000 0.00000 ; methylguanidinium ion
3688 3707 3708 3712 3 20.50160 0.00000 -20.50160 0.00000 0.00000 0.00000 ; imides
3689 3688 3707 3706 3 30.28798 -4.81160 -25.47638 0.00000 0.00000 0.00000 ; imides
3689 3688 3707 3708 3 33.20422 0.00000 -33.20422 0.00000 0.00000 0.00000 ; methylguanidinium ion
3689 3697 3698 3699 3 33.20422 0.00000 -33.20422 0.00000 0.00000 0.00000 ; methylguanidinium ion
3689 3697 3698 3706 3 30.28798 -4.81160 -25.47638 0.00000 0.00000 0.00000 ; imides
3690 3689 3697 3698 3 33.20422 0.00000 -33.20422 0.00000 0.00000 0.00000 ; methylguanidinium ion
3691 3692 12444 12443 3 1.58992 4.76976 0.00000 -6.35968 0.00000 0.00000
3691 3692 12444 12445 3 1.58992 4.76976 0.00000 -6.35968 0.00000 0.00000
3691 3692 12444 12446 3 1.58992 4.76976 0.00000 -6.35968 0.00000 0.00000
3692 12444 12443 12442 3 1.78866 3.49154 0.53555 -5.81576 0.00000 0.00000
3692 12444 12443 12447 3 -1.26775 3.02085 1.74473 -3.49782 0.00000 0.00000
3697 3689 3690 3691 3 33.20422 0.00000 -33.20422 0.00000 0.00000 0.00000 ; methylguanidinium ion
3697 3689 3690 3695 3 20.50160 0.00000 -20.50160 0.00000 0.00000 0.00000 ; imides
3697 3698 3706 3707 3 30.28798 -4.81160 -25.47638 0.00000 0.00000 0.00000 ; imides
3698 3706 3707 3688 3 30.28798 -4.81160 -25.47638 0.00000 0.00000 0.00000 ; imides
3698 3706 3707 3708 3 33.20422 0.00000 -33.20422 0.00000 0.00000 0.00000 ; methylguanidinium ion
3699 3698 3706 3707 3 33.20422 0.00000 -33.20422 0.00000 0.00000 0.00000 ; methylguanidinium ion
3700 3701 11800 11799 3 1.58992 4.76976 0.00000 -6.35968 0.00000 0.00000
3700 3701 11800 11801 3 1.58992 4.76976 0.00000 -6.35968 0.00000 0.00000
3700 3701 11800 11802 3 1.58992 4.76976 0.00000 -6.35968 0.00000 0.00000
3701 11800 11799 11798 3 1.78866 3.49154 0.53555 -5.81576 0.00000 0.00000
3701 11800 11799 11803 3 -1.26775 3.02085 1.74473 -3.49782 0.00000 0.00000
3706 3698 3699 3700 3 33.20422 0.00000 -33.20422 0.00000 0.00000 0.00000 ; methylguanidinium ion
3706 3698 3699 3704 3 20.50160 0.00000 -20.50160 0.00000 0.00000 0.00000 ; imides
3707 3688 3689 3690 3 33.20422 0.00000 -33.20422 0.00000 0.00000 0.00000 ; methylguanidinium ion
3707 3688 3689 3697 3 30.28798 -4.81160 -25.47638 0.00000 0.00000 0.00000 ; imides
3709 2463 2462 2461 3 1.58992 4.76976 0.00000 -6.35968 0.00000 0.00000
3709 2463 2462 2464 3 1.58992 4.76976 0.00000 -6.35968 0.00000 0.00000
3709 2463 2462 2465 3 1.58992 4.76976 0.00000 -6.35968 0.00000 0.00000
3714 3715 3723 3724 3 30.28798 -4.81160 -25.47638 0.00000 0.00000 0.00000 ; imides
3714 3733 3734 3735 3 33.20422 0.00000 -33.20422 0.00000 0.00000 0.00000 ; methylguanidinium ion
3714 3733 3734 3739 3 20.50160 0.00000 -20.50160 0.00000 0.00000 0.00000 ; imides
3715 3714 3733 3732 3 30.28798 -4.81160 -25.47638 0.00000 0.00000 0.00000 ; imides
3715 3714 3733 3734 3 33.20422 0.00000 -33.20422 0.00000 0.00000 0.00000 ; methylguanidinium ion
3715 3723 3724 3725 3 33.20422 0.00000 -33.20422 0.00000 0.00000 0.00000 ; methylguanidinium ion
3715 3723 3724 3732 3 30.28798 -4.81160 -25.47638 0.00000 0.00000 0.00000 ; imides
3716 3715 3723 3724 3 33.20422 0.00000 -33.20422 0.00000 0.00000 0.00000 ; methylguanidinium ion
3717 3718 5875 5874 3 1.58992 4.76976 0.00000 -6.35968 0.00000 0.00000
3717 3718 5875 5876 3 1.58992 4.76976 0.00000 -6.35968 0.00000 0.00000
3717 3718 5875 5877 3 1.58992 4.76976 0.00000 -6.35968 0.00000 0.00000
3718 5875 5874 5873 3 1.78866 3.49154 0.53555 -5.81576 0.00000 0.00000
3718 5875 5874 5878 3 -1.26775 3.02085 1.74473 -3.49782 0.00000 0.00000
3723 3715 3716 3717 3 33.20422 0.00000 -33.20422 0.00000 0.00000 0.00000 ; methylguanidinium ion
3723 3715 3716 3721 3 20.50160 0.00000 -20.50160 0.00000 0.00000 0.00000 ; imides
3723 3724 3732 3733 3 30.28798 -4.81160 -25.47638 0.00000 0.00000 0.00000 ; imides
3724 3732 3733 3714 3 30.28798 -4.81160 -25.47638 0.00000 0.00000 0.00000 ; imides
3724 3732 3733 3734 3 33.20422 0.00000 -33.20422 0.00000 0.00000 0.00000 ; methylguanidinium ion
3725 3724 3732 3733 3 33.20422 0.00000 -33.20422 0.00000 0.00000 0.00000 ; methylguanidinium ion
3726 3727 12049 12048 3 1.58992 4.76976 0.00000 -6.35968 0.00000 0.00000
3726 3727 12049 12050 3 1.58992 4.76976 0.00000 -6.35968 0.00000 0.00000
3726 3727 12049 12051 3 1.58992 4.76976 0.00000 -6.35968 0.00000 0.00000
3727 12049 12048 12047 3 1.78866 3.49154 0.53555 -5.81576 0.00000 0.00000
3727 12049 12048 12052 3 -1.26775 3.02085 1.74473 -3.49782 0.00000 0.00000
3732 3724 3725 3726 3 33.20422 0.00000 -33.20422 0.00000 0.00000 0.00000 ; methylguanidinium ion
3732 3724 3725 3730 3 20.50160 0.00000 -20.50160 0.00000 0.00000 0.00000 ; imides
3733 3714 3715 3716 3 33.20422 0.00000 -33.20422 0.00000 0.00000 0.00000 ; methylguanidinium ion
3733 3714 3715 3723 3 30.28798 -4.81160 -25.47638 0.00000 0.00000 0.00000 ; imides
3735 3736 12924 12923 3 1.58992 4.76976 0.00000 -6.35968 0.00000 0.00000
3735 3736 12924 12925 3 1.58992 4.76976 0.00000 -6.35968 0.00000 0.00000
3735 3736 12924 12926 3 1.58992 4.76976 0.00000 -6.35968 0.00000 0.00000
3736 12924 12923 12922 3 1.78866 3.49154 0.53555 -5.81576 0.00000 0.00000
3736 12924 12923 12927 3 -1.26775 3.02085 1.74473 -3.49782 0.00000 0.00000
3741 3742 3750 3751 3 30.28798 -4.81160 -25.47638 0.00000 0.00000 0.00000 ; imides
3741 3759 3760 3761 3 33.20422 0.00000 -33.20422 0.00000 0.00000 0.00000 ; methylguanidinium ion
3741 3759 3760 3765 3 20.50160 0.00000 -20.50160 0.00000 0.00000 0.00000 ; imides
3742 3741 3759 3758 3 30.28798 -4.81160 -25.47638 0.00000 0.00000 0.00000 ; imides
3742 3741 3759 3760 3 33.20422 0.00000 -33.20422 0.00000 0.00000 0.00000 ; methylguanidinium ion
3742 3750 3751 3752 3 33.20422 0.00000 -33.20422 0.00000 0.00000 0.00000 ; methylguanidinium ion
3742 3750 3751 3758 3 30.28798 -4.81160 -25.47638 0.00000 0.00000 0.00000 ; imides
3743 3742 3750 3751 3 33.20422 0.00000 -33.20422 0.00000 0.00000 0.00000 ; methylguanidinium ion
3744 3745 7807 7806 3 1.58992 4.76976 0.00000 -6.35968 0.00000 0.00000
3744 3745 7807 7808 3 1.58992 4.76976 0.00000 -6.35968 0.00000 0.00000
3744 3745 7807 7809 3 1.58992 4.76976 0.00000 -6.35968 0.00000 0.00000
3745 7807 7806 7805 3 1.78866 3.49154 0.53555 -5.81576 0.00000 0.00000
3745 7807 7806 7810 3 -1.26775 3.02085 1.74473 -3.49782 0.00000 0.00000
3750 3742 3743 3744 3 33.20422 0.00000 -33.20422 0.00000 0.00000 0.00000 ; methylguanidinium ion
3750 3742 3743 3748 3 20.50160 0.00000 -20.50160 0.00000 0.00000 0.00000 ; imides
3750 3751 3758 3759 3 30.28798 -4.81160 -25.47638 0.00000 0.00000 0.00000 ; imides
3751 3758 3759 3741 3 30.28798 -4.81160 -25.47638 0.00000 0.00000 0.00000 ; imides
3751 3758 3759 3760 3 33.20422 0.00000 -33.20422 0.00000 0.00000 0.00000 ; methylguanidinium ion
3752 3751 3758 3759 3 33.20422 0.00000 -33.20422 0.00000 0.00000 0.00000 ; methylguanidinium ion
3753 1585 1584 1583 3 1.58992 4.76976 0.00000 -6.35968 0.00000 0.00000
3753 1585 1584 1586 3 1.58992 4.76976 0.00000 -6.35968 0.00000 0.00000
3753 1585 1584 1587 3 1.58992 4.76976 0.00000 -6.35968 0.00000 0.00000
3758 3751 3752 3753 3 33.20422 0.00000 -33.20422 0.00000 0.00000 0.00000 ; methylguanidinium ion
3758 3751 3752 3756 3 20.50160 0.00000 -20.50160 0.00000 0.00000 0.00000 ; imides
3759 3741 3742 3743 3 33.20422 0.00000 -33.20422 0.00000 0.00000 0.00000 ; methylguanidinium ion
3759 3741 3742 3750 3 30.28798 -4.81160 -25.47638 0.00000 0.00000 0.00000 ; imides
3761 3762 11304 11303 3 1.58992 4.76976 0.00000 -6.35968 0.00000 0.00000
3761 3762 11304 11305 3 1.58992 4.76976 0.00000 -6.35968 0.00000 0.00000
3761 3762 11304 11306 3 1.58992 4.76976 0.00000 -6.35968 0.00000 0.00000
3762 11304 11303 11302 3 1.78866 3.49154 0.53555 -5.81576 0.00000 0.00000
3762 11304 11303 11307 3 -1.26775 3.02085 1.74473 -3.49782 0.00000 0.00000
3767 3768 3777 3778 3 30.28798 -4.81160 -25.47638 0.00000 0.00000 0.00000 ; imides
3767 3787 3788 3789 3 33.20422 0.00000 -33.20422 0.00000 0.00000 0.00000 ; methylguanidinium ion
3767 3787 3788 3793 3 20.50160 0.00000 -20.50160 0.00000 0.00000 0.00000 ; imides
3768 3767 3787 3786 3 30.28798 -4.81160 -25.47638 0.00000 0.00000 0.00000 ; imides
3768 3767 3787 3788 3 33.20422 0.00000 -33.20422 0.00000 0.00000 0.00000 ; methylguanidinium ion
3768 3777 3778 3779 3 33.20422 0.00000 -33.20422 0.00000 0.00000 0.00000 ; methylguanidinium ion
3768 3777 3778 3786 3 30.28798 -4.81160 -25.47638 0.00000 0.00000 0.00000 ; imides
3769 3768 3777 3778 3 33.20422 0.00000 -33.20422 0.00000 0.00000 0.00000 ; methylguanidinium ion
3777 3768 3769 3770 3 33.20422 0.00000 -33.20422 0.00000 0.00000 0.00000 ; methylguanidinium ion
3777 3768 3769 3775 3 20.50160 0.00000 -20.50160 0.00000 0.00000 0.00000 ; imides
3777 3778 3786 3787 3 30.28798 -4.81160 -25.47638 0.00000 0.00000 0.00000 ; imides
3778 3786 3787 3767 3 30.28798 -4.81160 -25.47638 0.00000 0.00000 0.00000 ; imides
3778 3786 3787 3788 3 33.20422 0.00000 -33.20422 0.00000 0.00000 0.00000 ; methylguanidinium ion
3779 3778 3786 3787 3 33.20422 0.00000 -33.20422 0.00000 0.00000 0.00000 ; methylguanidinium ion
3780 3781 11890 11889 3 1.58992 4.76976 0.00000 -6.35968 0.00000 0.00000
3780 3781 11890 11891 3 1.58992 4.76976 0.00000 -6.35968 0.00000 0.00000
3780 3781 11890 11892 3 1.58992 4.76976 0.00000 -6.35968 0.00000 0.00000
3781 11890 11889 11888 3 1.78866 3.49154 0.53555 -5.81576 0.00000 0.00000
3781 11890 11889 11893 3 -1.26775 3.02085 1.74473 -3.49782 0.00000 0.00000
3786 3778 3779 3780 3 33.20422 0.00000 -33.20422 0.00000 0.00000 0.00000 ; methylguanidinium ion
3786 3778 3779 3784 3 20.50160 0.00000 -20.50160 0.00000 0.00000 0.00000 ; imides
3787 3767 3768 3769 3 33.20422 0.00000 -33.20422 0.00000 0.00000 0.00000 ; methylguanidinium ion
3787 3767 3768 3777 3 30.28798 -4.81160 -25.47638 0.00000 0.00000 0.00000 ; imides
3789 3790 9217 9216 3 1.58992 4.76976 0.00000 -6.35968 0.00000 0.00000
3789 3790 9217 9218 3 1.58992 4.76976 0.00000 -6.35968 0.00000 0.00000
3789 3790 9217 9219 3 1.58992 4.76976 0.00000 -6.35968 0.00000 0.00000
3790 9217 9216 9215 3 1.78866 3.49154 0.53555 -5.81576 0.00000 0.00000
3790 9217 9216 9220 3 -1.26775 3.02085 1.74473 -3.49782 0.00000 0.00000
3795 3796 3803 3804 3 30.28798 -4.81160 -25.47638 0.00000 0.00000 0.00000 ; imides
3795 3813 3814 3815 3 33.20422 0.00000 -33.20422 0.00000 0.00000 0.00000 ; methylguanidinium ion
3795 3813 3814 3818 3 20.50160 0.00000 -20.50160 0.00000 0.00000 0.00000 ; imides
3796 3795 3813 3812 3 30.28798 -4.81160 -25.47638 0.00000 0.00000 0.00000 ; imides
3796 3795 3813 3814 3 33.20422 0.00000 -33.20422 0.00000 0.00000 0.00000 ; methylguanidinium ion
3796 3803 3804 3805 3 33.20422 0.00000 -33.20422 0.00000 0.00000 0.00000 ; methylguanidinium ion
3796 3803 3804 3812 3 30.28798 -4.81160 -25.47638 0.00000 0.00000 0.00000 ; imides
3797 3796 3803 3804 3 33.20422 0.00000 -33.20422 0.00000 0.00000 0.00000 ; methylguanidinium ion
3798 1351 1350 1349 3 1.58992 4.76976 0.00000 -6.35968 0.00000 0.00000
3798 1351 1350 1352 3 1.58992 4.76976 0.00000 -6.35968 0.00000 0.00000
3798 1351 1350 1353 3 1.58992 4.76976 0.00000 -6.35968 0.00000 0.00000
3803 3796 3797 3798 3 33.20422 0.00000 -33.20422 0.00000 0.00000 0.00000 ; methylguanidinium ion
3803 3796 3797 3801 3 20.50160 0.00000 -20.50160 0.00000 0.00000 0.00000 ; imides
3803 3804 3812 3813 3 30.28798 -4.81160 -25.47638 0.00000 0.00000 0.00000 ; imides
3804 3812 3813 3795 3 30.28798 -4.81160 -25.47638 0.00000 0.00000 0.00000 ; imides
3804 3812 3813 3814 3 33.20422 0.00000 -33.20422 0.00000 0.00000 0.00000 ; methylguanidinium ion
3805 3804 3812 3813 3 33.20422 0.00000 -33.20422 0.00000 0.00000 0.00000 ; methylguanidinium ion
3806 3807 10911 10910 3 1.58992 4.76976 0.00000 -6.35968 0.00000 0.00000
3806 3807 10911 10912 3 1.58992 4.76976 0.00000 -6.35968 0.00000 0.00000
3806 3807 10911 10913 3 1.58992 4.76976 0.00000 -6.35968 0.00000 0.00000
3807 10911 10910 10909 3 1.78866 3.49154 0.53555 -5.81576 0.00000 0.00000
3807 10911 10910 10914 3 -1.26775 3.02085 1.74473 -3.49782 0.00000 0.00000
3812 3804 3805 3806 3 33.20422 0.00000 -33.20422 0.00000 0.00000 0.00000 ; methylguanidinium ion
3812 3804 3805 3810 3 20.50160 0.00000 -20.50160 0.00000 0.00000 0.00000 ; imides
3813 3795 3796 3797 3 33.20422 0.00000 -33.20422 0.00000 0.00000 0.00000 ; methylguanidinium ion
3813 3795 3796 3803 3 30.28798 -4.81160 -25.47638 0.00000 0.00000 0.00000 ; imides
3815 180 179 178 3 1.58992 4.76976 0.00000 -6.35968 0.00000 0.00000
3815 180 179 181 3 1.58992 4.76976 0.00000 -6.35968 0.00000 0.00000
3815 180 179 182 3 1.58992 4.76976 0.00000 -6.35968 0.00000 0.00000
3820 3821 3829 3830 3 30.28798 -4.81160 -25.47638 0.00000 0.00000 0.00000 ; imides
3820 3838 3839 3840 3 33.20422 0.00000 -33.20422 0.00000 0.00000 0.00000 ; methylguanidinium ion
3820 3838 3839 3844 3 20.50160 0.00000 -20.50160 0.00000 0.00000 0.00000 ; imides
3821 3820 3838 3837 3 30.28798 -4.81160 -25.47638 0.00000 0.00000 0.00000 ; imides
3821 3820 3838 3839 3 33.20422 0.00000 -33.20422 0.00000 0.00000 0.00000 ; methylguanidinium ion
3821 3829 3830 3831 3 33.20422 0.00000 -33.20422 0.00000 0.00000 0.00000 ; methylguanidinium ion
3821 3829 3830 3837 3 30.28798 -4.81160 -25.47638 0.00000 0.00000 0.00000 ; imides
3822 3821 3829 3830 3 33.20422 0.00000 -33.20422 0.00000 0.00000 0.00000 ; methylguanidinium ion
3823 3824 5399 5398 3 1.58992 4.76976 0.00000 -6.35968 0.00000 0.00000
3823 3824 5399 5400 3 1.58992 4.76976 0.00000 -6.35968 0.00000 0.00000
3823 3824 5399 5401 3 1.58992 4.76976 0.00000 -6.35968 0.00000 0.00000
3824 5399 5398 5397 3 1.78866 3.49154 0.53555 -5.81576 0.00000 0.00000
3824 5399 5398 5402 3 -1.26775 3.02085 1.74473 -3.49782 0.00000 0.00000
3829 3821 3822 3823 3 33.20422 0.00000 -33.20422 0.00000 0.00000 0.00000 ; methylguanidinium ion
3829 3821 3822 3827 3 20.50160 0.00000 -20.50160 0.00000 0.00000 0.00000 ; imides
3829 3830 3837 3838 3 30.28798 -4.81160 -25.47638 0.00000 0.00000 0.00000 ; imides
3830 3837 3838 3820 3 30.28798 -4.81160 -25.47638 0.00000 0.00000 0.00000 ; imides
3830 3837 3838 3839 3 33.20422 0.00000 -33.20422 0.00000 0.00000 0.00000 ; methylguanidinium ion
3831 3830 3837 3838 3 33.20422 0.00000 -33.20422 0.00000 0.00000 0.00000 ; methylguanidinium ion
3832 1469 1468 1467 3 1.58992 4.76976 0.00000 -6.35968 0.00000 0.00000
3832 1469 1468 1470 3 1.58992 4.76976 0.00000 -6.35968 0.00000 0.00000
3832 1469 1468 1471 3 1.58992 4.76976 0.00000 -6.35968 0.00000 0.00000
3837 3830 3831 3832 3 33.20422 0.00000 -33.20422 0.00000 0.00000 0.00000 ; methylguanidinium ion
3837 3830 3831 3835 3 20.50160 0.00000 -20.50160 0.00000 0.00000 0.00000 ; imides
3838 3820 3821 3822 3 33.20422 0.00000 -33.20422 0.00000 0.00000 0.00000 ; methylguanidinium ion
3838 3820 3821 3829 3 30.28798 -4.81160 -25.47638 0.00000 0.00000 0.00000 ; imides
3840 3841 4508 4507 3 1.58992 4.76976 0.00000 -6.35968 0.00000 0.00000
3840 3841 4508 4509 3 1.58992 4.76976 0.00000 -6.35968 0.00000 0.00000
3840 3841 4508 4510 3 1.58992 4.76976 0.00000 -6.35968 0.00000 0.00000
3841 4508 4507 4506 3 1.78866 3.49154 0.53555 -5.81576 0.00000 0.00000
3841 4508 4507 4511 3 -1.26775 3.02085 1.74473 -3.49782 0.00000 0.00000
3846 3847 3855 3856 3 30.28798 -4.81160 -25.47638 0.00000 0.00000 0.00000 ; imides
3846 3865 3866 3867 3 33.20422 0.00000 -33.20422 0.00000 0.00000 0.00000 ; methylguanidinium ion
3846 3865 3866 3870 3 20.50160 0.00000 -20.50160 0.00000 0.00000 0.00000 ; imides
3847 3846 3865 3864 3 30.28798 -4.81160 -25.47638 0.00000 0.00000 0.00000 ; imides
3847 3846 3865 3866 3 33.20422 0.00000 -33.20422 0.00000 0.00000 0.00000 ; methylguanidinium ion
3847 3855 3856 3857 3 33.20422 0.00000 -33.20422 0.00000 0.00000 0.00000 ; methylguanidinium ion
3847 3855 3856 3864 3 30.28798 -4.81160 -25.47638 0.00000 0.00000 0.00000 ; imides
3848 3847 3855 3856 3 33.20422 0.00000 -33.20422 0.00000 0.00000 0.00000 ; methylguanidinium ion
3849 3850 11124 11123 3 1.58992 4.76976 0.00000 -6.35968 0.00000 0.00000
3849 3850 11124 11125 3 1.58992 4.76976 0.00000 -6.35968 0.00000 0.00000
3849 3850 11124 11126 3 1.58992 4.76976 0.00000 -6.35968 0.00000 0.00000
3850 11124 11123 11122 3 1.78866 3.49154 0.53555 -5.81576 0.00000 0.00000
3850 11124 11123 11127 3 -1.26775 3.02085 1.74473 -3.49782 0.00000 0.00000
3855 3847 3848 3849 3 33.20422 0.00000 -33.20422 0.00000 0.00000 0.00000 ; methylguanidinium ion
3855 3847 3848 3853 3 20.50160 0.00000 -20.50160 0.00000 0.00000 0.00000 ; imides
3855 3856 3864 3865 3 30.28798 -4.81160 -25.47638 0.00000 0.00000 0.00000 ; imides
3856 3864 3865 3846 3 30.28798 -4.81160 -25.47638 0.00000 0.00000 0.00000 ; imides
3856 3864 3865 3866 3 33.20422 0.00000 -33.20422 0.00000 0.00000 0.00000 ; methylguanidinium ion
3857 3856 3864 3865 3 33.20422 0.00000 -33.20422 0.00000 0.00000 0.00000 ; methylguanidinium ion
3858 3859 11392 11391 3 1.58992 4.76976 0.00000 -6.35968 0.00000 0.00000
3858 3859 11392 11393 3 1.58992 4.76976 0.00000 -6.35968 0.00000 0.00000
3858 3859 11392 11394 3 1.58992 4.76976 0.00000 -6.35968 0.00000 0.00000
3859 11392 11391 11390 3 1.78866 3.49154 0.53555 -5.81576 0.00000 0.00000
3859 11392 11391 11395 3 -1.26775 3.02085 1.74473 -3.49782 0.00000 0.00000
3864 3856 3857 3858 3 33.20422 0.00000 -33.20422 0.00000 0.00000 0.00000 ; methylguanidinium ion
3864 3856 3857 3862 3 20.50160 0.00000 -20.50160 0.00000 0.00000 0.00000 ; imides
3865 3846 3847 3848 3 33.20422 0.00000 -33.20422 0.00000 0.00000 0.00000 ; methylguanidinium ion
3865 3846 3847 3855 3 30.28798 -4.81160 -25.47638 0.00000 0.00000 0.00000 ; imides
3867 2050 2049 2048 3 1.58992 4.76976 0.00000 -6.35968 0.00000 0.00000
3867 2050 2049 2051 3 1.58992 4.76976 0.00000 -6.35968 0.00000 0.00000
3867 2050 2049 2052 3 1.58992 4.76976 0.00000 -6.35968 0.00000 0.00000
3872 3873 3881 3882 3 30.28798 -4.81160 -25.47638 0.00000 0.00000 0.00000 ; imides
3872 3892 3893 3894 3 33.20422 0.00000 -33.20422 0.00000 0.00000 0.00000 ; methylguanidinium ion
3872 3892 3893 3898 3 20.50160 0.00000 -20.50160 0.00000 0.00000 0.00000 ; imides
3873 3872 3892 3891 3 30.28798 -4.81160 -25.47638 0.00000 0.00000 0.00000 ; imides
3873 3872 3892 3893 3 33.20422 0.00000 -33.20422 0.00000 0.00000 0.00000 ; methylguanidinium ion
3873 3881 3882 3883 3 33.20422 0.00000 -33.20422 0.00000 0.00000 0.00000 ; methylguanidinium ion
3873 3881 3882 3891 3 30.28798 -4.81160 -25.47638 0.00000 0.00000 0.00000 ; imides
3874 3873 3881 3882 3 33.20422 0.00000 -33.20422 0.00000 0.00000 0.00000 ; methylguanidinium ion
3875 3876 5250 5249 3 1.58992 4.76976 0.00000 -6.35968 0.00000 0.00000
3875 3876 5250 5251 3 1.58992 4.76976 0.00000 -6.35968 0.00000 0.00000
3875 3876 5250 5252 3 1.58992 4.76976 0.00000 -6.35968 0.00000 0.00000
3876 5250 5249 5248 3 1.78866 3.49154 0.53555 -5.81576 0.00000 0.00000
3876 5250 5249 5253 3 -1.26775 3.02085 1.74473 -3.49782 0.00000 0.00000
3881 3873 3874 3875 3 33.20422 0.00000 -33.20422 0.00000 0.00000 0.00000 ; methylguanidinium ion
3881 3873 3874 3879 3 20.50160 0.00000 -20.50160 0.00000 0.00000 0.00000 ; imides
3881 3882 3891 3892 3 30.28798 -4.81160 -25.47638 0.00000 0.00000 0.00000 ; imides
3882 3891 3892 3872 3 30.28798 -4.81160 -25.47638 0.00000 0.00000 0.00000 ; imides
3882 3891 3892 3893 3 33.20422 0.00000 -33.20422 0.00000 0.00000 0.00000 ; methylguanidinium ion
3883 3882 3891 3892 3 33.20422 0.00000 -33.20422 0.00000 0.00000 0.00000 ; methylguanidinium ion
3891 3882 3883 3884 3 33.20422 0.00000 -33.20422 0.00000 0.00000 0.00000 ; methylguanidinium ion
3891 3882 3883 3889 3 20.50160 0.00000 -20.50160 0.00000 0.00000 0.00000 ; imides
3892 3872 3873 3874 3 33.20422 0.00000 -33.20422 0.00000 0.00000 0.00000 ; methylguanidinium ion
3892 3872 3873 3881 3 30.28798 -4.81160 -25.47638 0.00000 0.00000 0.00000 ; imides
3894 3895 5825 5824 3 1.58992 4.76976 0.00000 -6.35968 0.00000 0.00000
3894 3895 5825 5826 3 1.58992 4.76976 0.00000 -6.35968 0.00000 0.00000
3894 3895 5825 5827 3 1.58992 4.76976 0.00000 -6.35968 0.00000 0.00000
3895 5825 5824 5823 3 1.78866 3.49154 0.53555 -5.81576 0.00000 0.00000
3895 5825 5824 5828 3 -1.26775 3.02085 1.74473 -3.49782 0.00000 0.00000
3900 3901 3910 3911 3 30.28798 -4.81160 -25.47638 0.00000 0.00000 0.00000 ; imides
3900 3919 3920 3921 3 33.20422 0.00000 -33.20422 0.00000 0.00000 0.00000 ; methylguanidinium ion
3900 3919 3920 3925 3 20.50160 0.00000 -20.50160 0.00000 0.00000 0.00000 ; imides
3901 3900 3919 3918 3 30.28798 -4.81160 -25.47638 0.00000 0.00000 0.00000 ; imides
3901 3900 3919 3920 3 33.20422 0.00000 -33.20422 0.00000 0.00000 0.00000 ; methylguanidinium ion
3901 3910 3911 3912 3 33.20422 0.00000 -33.20422 0.00000 0.00000 0.00000 ; methylguanidinium ion
3901 3910 3911 3918 3 30.28798 -4.81160 -25.47638 0.00000 0.00000 0.00000 ; imides
3902 3901 3910 3911 3 33.20422 0.00000 -33.20422 0.00000 0.00000 0.00000 ; methylguanidinium ion
3910 3901 3902 3903 3 33.20422 0.00000 -33.20422 0.00000 0.00000 0.00000 ; methylguanidinium ion
3910 3901 3902 3908 3 20.50160 0.00000 -20.50160 0.00000 0.00000 0.00000 ; imides
3910 3911 3918 3919 3 30.28798 -4.81160 -25.47638 0.00000 0.00000 0.00000 ; imides
3911 3918 3919 3900 3 30.28798 -4.81160 -25.47638 0.00000 0.00000 0.00000 ; imides
3911 3918 3919 3920 3 33.20422 0.00000 -33.20422 0.00000 0.00000 0.00000 ; methylguanidinium ion
3912 3911 3918 3919 3 33.20422 0.00000 -33.20422 0.00000 0.00000 0.00000 ; methylguanidinium ion
3913 1523 1522 1521 3 1.58992 4.76976 0.00000 -6.35968 0.00000 0.00000
3913 1523 1522 1524 3 1.58992 4.76976 0.00000 -6.35968 0.00000 0.00000
3913 1523 1522 1525 3 1.58992 4.76976 0.00000 -6.35968 0.00000 0.00000
3918 3911 3912 3913 3 33.20422 0.00000 -33.20422 0.00000 0.00000 0.00000 ; methylguanidinium ion
3918 3911 3912 3916 3 20.50160 0.00000 -20.50160 0.00000 0.00000 0.00000 ; imides
3919 3900 3901 3902 3 33.20422 0.00000 -33.20422 0.00000 0.00000 0.00000 ; methylguanidinium ion
3919 3900 3901 3910 3 30.28798 -4.81160 -25.47638 0.00000 0.00000 0.00000 ; imides
3921 3922 7882 7881 3 1.58992 4.76976 0.00000 -6.35968 0.00000 0.00000
3921 3922 7882 7883 3 1.58992 4.76976 0.00000 -6.35968 0.00000 0.00000
3921 3922 7882 7884 3 1.58992 4.76976 0.00000 -6.35968 0.00000 0.00000
3922 7882 7881 7880 3 1.78866 3.49154 0.53555 -5.81576 0.00000 0.00000
3922 7882 7881 7885 3 -1.26775 3.02085 1.74473 -3.49782 0.00000 0.00000
3927 3928 3936 3937 3 30.28798 -4.81160 -25.47638 0.00000 0.00000 0.00000 ; imides
3927 3946 3947 3948 3 33.20422 0.00000 -33.20422 0.00000 0.00000 0.00000 ; methylguanidinium ion
3927 3946 3947 3952 3 20.50160 0.00000 -20.50160 0.00000 0.00000 0.00000 ; imides
3928 3927 3946 3945 3 30.28798 -4.81160 -25.47638 0.00000 0.00000 0.00000 ; imides
3928 3927 3946 3947 3 33.20422 0.00000 -33.20422 0.00000 0.00000 0.00000 ; methylguanidinium ion
3928 3936 3937 3938 3 33.20422 0.00000 -33.20422 0.00000 0.00000 0.00000 ; methylguanidinium ion
3928 3936 3937 3945 3 30.28798 -4.81160 -25.47638 0.00000 0.00000 0.00000 ; imides
3929 3928 3936 3937 3 33.20422 0.00000 -33.20422 0.00000 0.00000 0.00000 ; methylguanidinium ion
3930 3931 12700 12699 3 1.58992 4.76976 0.00000 -6.35968 0.00000 0.00000
3930 3931 12700 12701 3 1.58992 4.76976 0.00000 -6.35968 0.00000 0.00000
3930 3931 12700 12702 3 1.58992 4.76976 0.00000 -6.35968 0.00000 0.00000
3931 12700 12699 12698 3 1.78866 3.49154 0.53555 -5.81576 0.00000 0.00000
3931 12700 12699 12703 3 -1.26775 3.02085 1.74473 -3.49782 0.00000 0.00000
3936 3928 3929 3930 3 33.20422 0.00000 -33.20422 0.00000 0.00000 0.00000 ; methylguanidinium ion
3936 3928 3929 3934 3 20.50160 0.00000 -20.50160 0.00000 0.00000 0.00000 ; imides
3936 3937 3945 3946 3 30.28798 -4.81160 -25.47638 0.00000 0.00000 0.00000 ; imides
3937 3945 3946 3927 3 30.28798 -4.81160 -25.47638 0.00000 0.00000 0.00000 ; imides
3937 3945 3946 3947 3 33.20422 0.00000 -33.20422 0.00000 0.00000 0.00000 ; methylguanidinium ion
3938 3937 3945 3946 3 33.20422 0.00000 -33.20422 0.00000 0.00000 0.00000 ; methylguanidinium ion
3939 3940 5858 5857 3 1.58992 4.76976 0.00000 -6.35968 0.00000 0.00000
3939 3940 5858 5859 3 1.58992 4.76976 0.00000 -6.35968 0.00000 0.00000
3939 3940 5858 5860 3 1.58992 4.76976 0.00000 -6.35968 0.00000 0.00000
3940 5858 5857 5856 3 1.78866 3.49154 0.53555 -5.81576 0.00000 0.00000
3940 5858 5857 5861 3 -1.26775 3.02085 1.74473 -3.49782 0.00000 0.00000
3945 3937 3938 3939 3 33.20422 0.00000 -33.20422 0.00000 0.00000 0.00000 ; methylguanidinium ion
3945 3937 3938 3943 3 20.50160 0.00000 -20.50160 0.00000 0.00000 0.00000 ; imides
3946 3927 3928 3929 3 33.20422 0.00000 -33.20422 0.00000 0.00000 0.00000 ; methylguanidinium ion
3946 3927 3928 3936 3 30.28798 -4.81160 -25.47638 0.00000 0.00000 0.00000 ; imides
3948 3949 8388 8387 3 1.58992 4.76976 0.00000 -6.35968 0.00000 0.00000
3948 3949 8388 8389 3 1.58992 4.76976 0.00000 -6.35968 0.00000 0.00000
3948 3949 8388 8390 3 1.58992 4.76976 0.00000 -6.35968 0.00000 0.00000
3949 8388 8387 8386 3 1.78866 3.49154 0.53555 -5.81576 0.00000 0.00000
3949 8388 8387 8391 3 -1.26775 3.02085 1.74473 -3.49782 0.00000 0.00000
3954 3955 3963 3964 3 30.28798 -4.81160 -25.47638 0.00000 0.00000 0.00000 ; imides
3954 3974 3975 3976 3 33.20422 0.00000 -33.20422 0.00000 0.00000 0.00000 ; methylguanidinium ion
3954 3974 3975 3979 3 20.50160 0.00000 -20.50160 0.00000 0.00000 0.00000 ; imides
3955 3954 3974 3973 3 30.28798 -4.81160 -25.47638 0.00000 0.00000 0.00000 ; imides
3955 3954 3974 3975 3 33.20422 0.00000 -33.20422 0.00000 0.00000 0.00000 ; methylguanidinium ion
3955 3963 3964 3965 3 33.20422 0.00000 -33.20422 0.00000 0.00000 0.00000 ; methylguanidinium ion
3955 3963 3964 3973 3 30.28798 -4.81160 -25.47638 0.00000 0.00000 0.00000 ; imides
3956 3955 3963 3964 3 33.20422 0.00000 -33.20422 0.00000 0.00000 0.00000 ; methylguanidinium ion
3957 3958 10045 10044 3 1.58992 4.76976 0.00000 -6.35968 0.00000 0.00000
3957 3958 10045 10046 3 1.58992 4.76976 0.00000 -6.35968 0.00000 0.00000
3957 3958 10045 10047 3 1.58992 4.76976 0.00000 -6.35968 0.00000 0.00000
3958 10045 10044 10043 3 1.78866 3.49154 0.53555 -5.81576 0.00000 0.00000
3958 10045 10044 10048 3 -1.26775 3.02085 1.74473 -3.49782 0.00000 0.00000
3963 3955 3956 3957 3 33.20422 0.00000 -33.20422 0.00000 0.00000 0.00000 ; methylguanidinium ion
3963 3955 3956 3961 3 20.50160 0.00000 -20.50160 0.00000 0.00000 0.00000 ; imides
3963 3964 3973 3974 3 30.28798 -4.81160 -25.47638 0.00000 0.00000 0.00000 ; imides
3964 3973 3974 3954 3 30.28798 -4.81160 -25.47638 0.00000 0.00000 0.00000 ; imides
3964 3973 3974 3975 3 33.20422 0.00000 -33.20422 0.00000 0.00000 0.00000 ; methylguanidinium ion
3965 3964 3973 3974 3 33.20422 0.00000 -33.20422 0.00000 0.00000 0.00000 ; methylguanidinium ion
3973 3964 3965 3966 3 33.20422 0.00000 -33.20422 0.00000 0.00000 0.00000 ; methylguanidinium ion
3973 3964 3965 3971 3 20.50160 0.00000 -20.50160 0.00000 0.00000 0.00000 ; imides
3974 3954 3955 3956 3 33.20422 0.00000 -33.20422 0.00000 0.00000 0.00000 ; methylguanidinium ion
3974 3954 3955 3963 3 30.28798 -4.81160 -25.47638 0.00000 0.00000 0.00000 ; imides
3976 553 552 551 3 1.58992 4.76976 0.00000 -6.35968 0.00000 0.00000
3976 553 552 554 3 1.58992 4.76976 0.00000 -6.35968 0.00000 0.00000
3976 553 552 555 3 1.58992 4.76976 0.00000 -6.35968 0.00000 0.00000
3981 3982 3989 3990 3 30.28798 -4.81160 -25.47638 0.00000 0.00000 0.00000 ; imides
3981 3999 4000 4001 3 33.20422 0.00000 -33.20422 0.00000 0.00000 0.00000 ; methylguanidinium ion
3981 3999 4000 4005 3 20.50160 0.00000 -20.50160 0.00000 0.00000 0.00000 ; imides
3982 3981 3999 3998 3 30.28798 -4.81160 -25.47638 0.00000 0.00000 0.00000 ; imides
3982 3981 3999 4000 3 33.20422 0.00000 -33.20422 0.00000 0.00000 0.00000 ; methylguanidinium ion
3982 3989 3990 3991 3 33.20422 0.00000 -33.20422 0.00000 0.00000 0.00000 ; methylguanidinium ion
3982 3989 3990 3998 3 30.28798 -4.81160 -25.47638 0.00000 0.00000 0.00000 ; imides
3983 3982 3989 3990 3 33.20422 0.00000 -33.20422 0.00000 0.00000 0.00000 ; methylguanidinium ion
3984 1987 1986 1985 3 1.58992 4.76976 0.00000 -6.35968 0.00000 0.00000
3984 1987 1986 1988 3 1.58992 4.76976 0.00000 -6.35968 0.00000 0.00000
3984 1987 1986 1989 3 1.58992 4.76976 0.00000 -6.35968 0.00000 0.00000
3989 3982 3983 3984 3 33.20422 0.00000 -33.20422 0.00000 0.00000 0.00000 ; methylguanidinium ion
3989 3982 3983 3987 3 20.50160 0.00000 -20.50160 0.00000 0.00000 0.00000 ; imides
3989 3990 3998 3999 3 30.28798 -4.81160 -25.47638 0.00000 0.00000 0.00000 ; imides
3990 3998 3999 3981 3 30.28798 -4.81160 -25.47638 0.00000 0.00000 0.00000 ; imides
3990 3998 3999 4000 3 33.20422 0.00000 -33.20422 0.00000 0.00000 0.00000 ; methylguanidinium ion
3991 3990 3998 3999 3 33.20422 0.00000 -33.20422 0.00000 0.00000 0.00000 ; methylguanidinium ion
3992 3993 12740 12739 3 1.58992 4.76976 0.00000 -6.35968 0.00000 0.00000
3992 3993 12740 12741 3 1.58992 4.76976 0.00000 -6.35968 0.00000 0.00000
3992 3993 12740 12742 3 1.58992 4.76976 0.00000 -6.35968 0.00000 0.00000
3993 12740 12739 12738 3 1.78866 3.49154 0.53555 -5.81576 0.00000 0.00000
3993 12740 12739 12743 3 -1.26775 3.02085 1.74473 -3.49782 0.00000 0.00000
3998 3990 3991 3992 3 33.20422 0.00000 -33.20422 0.00000 0.00000 0.00000 ; methylguanidinium ion
3998 3990 3991 3996 3 20.50160 0.00000 -20.50160 0.00000 0.00000 0.00000 ; imides
3999 3981 3982 3983 3 33.20422 0.00000 -33.20422 0.00000 0.00000 0.00000 ; methylguanidinium ion
3999 3981 3982 3989 3 30.28798 -4.81160 -25.47638 0.00000 0.00000 0.00000 ; imides
4001 4002 11816 11815 3 1.58992 4.76976 0.00000 -6.35968 0.00000 0.00000
4001 4002 11816 11817 3 1.58992 4.76976 0.00000 -6.35968 0.00000 0.00000
4001 4002 11816 11818 3 1.58992 4.76976 0.00000 -6.35968 0.00000 0.00000
4002 11816 11815 11814 3 1.78866 3.49154 0.53555 -5.81576 0.00000 0.00000
4002 11816 11815 11819 3 -1.26775 3.02085 1.74473 -3.49782 0.00000 0.00000
4007 4008 4016 4017 3 30.28798 -4.81160 -25.47638 0.00000 0.00000 0.00000 ; imides
4007 4026 4027 4028 3 33.20422 0.00000 -33.20422 0.00000 0.00000 0.00000 ; methylguanidinium ion
4007 4026 4027 4032 3 20.50160 0.00000 -20.50160 0.00000 0.00000 0.00000 ; imides
4008 4007 4026 4025 3 30.28798 -4.81160 -25.47638 0.00000 0.00000 0.00000 ; imides
4008 4007 4026 4027 3 33.20422 0.00000 -33.20422 0.00000 0.00000 0.00000 ; methylguanidinium ion
4008 4016 4017 4018 3 33.20422 0.00000 -33.20422 0.00000 0.00000 0.00000 ; methylguanidinium ion
4008 4016 4017 4025 3 30.28798 -4.81160 -25.47638 0.00000 0.00000 0.00000 ; imides
4009 4008 4016 4017 3 33.20422 0.00000 -33.20422 0.00000 0.00000 0.00000 ; methylguanidinium ion
4010 4011 7547 7546 3 1.58992 4.76976 0.00000 -6.35968 0.00000 0.00000
4010 4011 7547 7548 3 1.58992 4.76976 0.00000 -6.35968 0.00000 0.00000
4010 4011 7547 7549 3 1.58992 4.76976 0.00000 -6.35968 0.00000 0.00000
4011 7547 7546 7545 3 1.78866 3.49154 0.53555 -5.81576 0.00000 0.00000
4011 7547 7546 7550 3 -1.26775 3.02085 1.74473 -3.49782 0.00000 0.00000
4016 4008 4009 4010 3 33.20422 0.00000 -33.20422 0.00000 0.00000 0.00000 ; methylguanidinium ion
4016 4008 4009 4014 3 20.50160 0.00000 -20.50160 0.00000 0.00000 0.00000 ; imides
4016 4017 4025 4026 3 30.28798 -4.81160 -25.47638 0.00000 0.00000 0.00000 ; imides
4017 4025 4026 4007 3 30.28798 -4.81160 -25.47638 0.00000 0.00000 0.00000 ; imides
4017 4025 4026 4027 3 33.20422 0.00000 -33.20422 0.00000 0.00000 0.00000 ; methylguanidinium ion
4018 4017 4025 4026 3 33.20422 0.00000 -33.20422 0.00000 0.00000 0.00000 ; methylguanidinium ion
4019 4020 12091 12090 3 1.58992 4.76976 0.00000 -6.35968 0.00000 0.00000
4019 4020 12091 12092 3 1.58992 4.76976 0.00000 -6.35968 0.00000 0.00000
4019 4020 12091 12093 3 1.58992 4.76976 0.00000 -6.35968 0.00000 0.00000
4020 12091 12090 12089 3 1.78866 3.49154 0.53555 -5.81576 0.00000 0.00000
4020 12091 12090 12094 3 -1.26775 3.02085 1.74473 -3.49782 0.00000 0.00000
4025 4017 4018 4019 3 33.20422 0.00000 -33.20422 0.00000 0.00000 0.00000 ; methylguanidinium ion
4025 4017 4018 4023 3 20.50160 0.00000 -20.50160 0.00000 0.00000 0.00000 ; imides
4026 4007 4008 4009 3 33.20422 0.00000 -33.20422 0.00000 0.00000 0.00000 ; methylguanidinium ion
4026 4007 4008 4016 3 30.28798 -4.81160 -25.47638 0.00000 0.00000 0.00000 ; imides
4028 4029 8006 8005 3 1.58992 4.76976 0.00000 -6.35968 0.00000 0.00000
4028 4029 8006 8007 3 1.58992 4.76976 0.00000 -6.35968 0.00000 0.00000
4028 4029 8006 8008 3 1.58992 4.76976 0.00000 -6.35968 0.00000 0.00000
4029 8006 8005 8004 3 1.78866 3.49154 0.53555 -5.81576 0.00000 0.00000
4029 8006 8005 8009 3 -1.26775 3.02085 1.74473 -3.49782 0.00000 0.00000
4034 4035 4043 4044 3 30.28798 -4.81160 -25.47638 0.00000 0.00000 0.00000 ; imides
4034 4052 4053 4054 3 33.20422 0.00000 -33.20422 0.00000 0.00000 0.00000 ; methylguanidinium ion
4034 4052 4053 4058 3 20.50160 0.00000 -20.50160 0.00000 0.00000 0.00000 ; imides
4035 4034 4052 4051 3 30.28798 -4.81160 -25.47638 0.00000 0.00000 0.00000 ; imides
4035 4034 4052 4053 3 33.20422 0.00000 -33.20422 0.00000 0.00000 0.00000 ; methylguanidinium ion
4035 4043 4044 4045 3 33.20422 0.00000 -33.20422 0.00000 0.00000 0.00000 ; methylguanidinium ion
4035 4043 4044 4051 3 30.28798 -4.81160 -25.47638 0.00000 0.00000 0.00000 ; imides
4036 4035 4043 4044 3 33.20422 0.00000 -33.20422 0.00000 0.00000 0.00000 ; methylguanidinium ion
4037 4038 6448 6447 3 1.58992 4.76976 0.00000 -6.35968 0.00000 0.00000
4037 4038 6448 6449 3 1.58992 4.76976 0.00000 -6.35968 0.00000 0.00000
4037 4038 6448 6450 3 1.58992 4.76976 0.00000 -6.35968 0.00000 0.00000
4038 6448 6447 6446 3 1.78866 3.49154 0.53555 -5.81576 0.00000 0.00000
4038 6448 6447 6451 3 -1.26775 3.02085 1.74473 -3.49782 0.00000 0.00000
4043 4035 4036 4037 3 33.20422 0.00000 -33.20422 0.00000 0.00000 0.00000 ; methylguanidinium ion
4043 4035 4036 4041 3 20.50160 0.00000 -20.50160 0.00000 0.00000 0.00000 ; imides
4043 4044 4051 4052 3 30.28798 -4.81160 -25.47638 0.00000 0.00000 0.00000 ; imides
4044 4051 4052 4034 3 30.28798 -4.81160 -25.47638 0.00000 0.00000 0.00000 ; imides
4044 4051 4052 4053 3 33.20422 0.00000 -33.20422 0.00000 0.00000 0.00000 ; methylguanidinium ion
4045 4044 4051 4052 3 33.20422 0.00000 -33.20422 0.00000 0.00000 0.00000 ; methylguanidinium ion
4046 2616 2615 2614 3 1.58992 4.76976 0.00000 -6.35968 0.00000 0.00000
4046 2616 2615 2617 3 1.58992 4.76976 0.00000 -6.35968 0.00000 0.00000
4046 2616 2615 2618 3 1.58992 4.76976 0.00000 -6.35968 0.00000 0.00000
4051 4044 4045 4046 3 33.20422 0.00000 -33.20422 0.00000 0.00000 0.00000 ; methylguanidinium ion
4051 4044 4045 4049 3 20.50160 0.00000 -20.50160 0.00000 0.00000 0.00000 ; imides
4052 4034 4035 4036 3 33.20422 0.00000 -33.20422 0.00000 0.00000 0.00000 ; methylguanidinium ion
4052 4034 4035 4043 3 30.28798 -4.81160 -25.47638 0.00000 0.00000 0.00000 ; imides
4054 4055 9258 9257 3 1.58992 4.76976 0.00000 -6.35968 0.00000 0.00000
4054 4055 9258 9259 3 1.58992 4.76976 0.00000 -6.35968 0.00000 0.00000
4054 4055 9258 9260 3 1.58992 4.76976 0.00000 -6.35968 0.00000 0.00000
4055 9258 9257 9256 3 1.78866 3.49154 0.53555 -5.81576 0.00000 0.00000
4055 9258 9257 9261 3 -1.26775 3.02085 1.74473 -3.49782 0.00000 0.00000
4060 4061 4069 4070 3 30.28798 -4.81160 -25.47638 0.00000 0.00000 0.00000 ; imides
4060 4078 4079 4080 3 33.20422 0.00000 -33.20422 0.00000 0.00000 0.00000 ; methylguanidinium ion
4060 4078 4079 4083 3 20.50160 0.00000 -20.50160 0.00000 0.00000 0.00000 ; imides
4061 4060 4078 4077 3 30.28798 -4.81160 -25.47638 0.00000 0.00000 0.00000 ; imides
4061 4060 4078 4079 3 33.20422 0.00000 -33.20422 0.00000 0.00000 0.00000 ; methylguanidinium ion
4061 4069 4070 4071 3 33.20422 0.00000 -33.20422 0.00000 0.00000 0.00000 ; methylguanidinium ion
4061 4069 4070 4077 3 30.28798 -4.81160 -25.47638 0.00000 0.00000 0.00000 ; imides
4062 4061 4069 4070 3 33.20422 0.00000 -33.20422 0.00000 0.00000 0.00000 ; methylguanidinium ion
4063 4064 6985 6984 3 1.58992 4.76976 0.00000 -6.35968 0.00000 0.00000
4063 4064 6985 6986 3 1.58992 4.76976 0.00000 -6.35968 0.00000 0.00000
4063 4064 6985 6987 3 1.58992 4.76976 0.00000 -6.35968 0.00000 0.00000
4064 6985 6984 6983 3 1.78866 3.49154 0.53555 -5.81576 0.00000 0.00000
4064 6985 6984 6988 3 -1.26775 3.02085 1.74473 -3.49782 0.00000 0.00000
4069 4061 4062 4063 3 33.20422 0.00000 -33.20422 0.00000 0.00000 0.00000 ; methylguanidinium ion
4069 4061 4062 4067 3 20.50160 0.00000 -20.50160 0.00000 0.00000 0.00000 ; imides
4069 4070 4077 4078 3 30.28798 -4.81160 -25.47638 0.00000 0.00000 0.00000 ; imides
4070 4077 4078 4060 3 30.28798 -4.81160 -25.47638 0.00000 0.00000 0.00000 ; imides
4070 4077 4078 4079 3 33.20422 0.00000 -33.20422 0.00000 0.00000 0.00000 ; methylguanidinium ion
4071 4070 4077 4078 3 33.20422 0.00000 -33.20422 0.00000 0.00000 0.00000 ; methylguanidinium ion
4072 272 271 270 3 1.58992 4.76976 0.00000 -6.35968 0.00000 0.00000
4072 272 271 273 3 1.58992 4.76976 0.00000 -6.35968 0.00000 0.00000
4072 272 271 274 3 1.58992 4.76976 0.00000 -6.35968 0.00000 0.00000
4077 4070 4071 4072 3 33.20422 0.00000 -33.20422 0.00000 0.00000 0.00000 ; methylguanidinium ion
4077 4070 4071 4075 3 20.50160 0.00000 -20.50160 0.00000 0.00000 0.00000 ; imides
4078 4060 4061 4062 3 33.20422 0.00000 -33.20422 0.00000 0.00000 0.00000 ; methylguanidinium ion
4078 4060 4061 4069 3 30.28798 -4.81160 -25.47638 0.00000 0.00000 0.00000 ; imides
4080 1045 1044 1043 3 1.58992 4.76976 0.00000 -6.35968 0.00000 0.00000
4080 1045 1044 1046 3 1.58992 4.76976 0.00000 -6.35968 0.00000 0.00000
4080 1045 1044 1047 3 1.58992 4.76976 0.00000 -6.35968 0.00000 0.00000
4085 4086 4095 4096 3 30.28798 -4.81160 -25.47638 0.00000 0.00000 0.00000 ; imides
4085 4105 4106 4107 3 33.20422 0.00000 -33.20422 0.00000 0.00000 0.00000 ; methylguanidinium ion
4085 4105 4106 4111 3 20.50160 0.00000 -20.50160 0.00000 0.00000 0.00000 ; imides
4086 4085 4105 4104 3 30.28798 -4.81160 -25.47638 0.00000 0.00000 0.00000 ; imides
4086 4085 4105 4106 3 33.20422 0.00000 -33.20422 0.00000 0.00000 0.00000 ; methylguanidinium ion
4086 4095 4096 4097 3 33.20422 0.00000 -33.20422 0.00000 0.00000 0.00000 ; methylguanidinium ion
4086 4095 4096 4104 3 30.28798 -4.81160 -25.47638 0.00000 0.00000 0.00000 ; imides
4087 4086 4095 4096 3 33.20422 0.00000 -33.20422 0.00000 0.00000 0.00000 ; methylguanidinium ion
4095 4086 4087 4088 3 33.20422 0.00000 -33.20422 0.00000 0.00000 0.00000 ; methylguanidinium ion
4095 4086 4087 4093 3 20.50160 0.00000 -20.50160 0.00000 0.00000 0.00000 ; imides
4095 4096 4104 4105 3 30.28798 -4.81160 -25.47638 0.00000 0.00000 0.00000 ; imides
4096 4104 4105 4085 3 30.28798 -4.81160 -25.47638 0.00000 0.00000 0.00000 ; imides
4096 4104 4105 4106 3 33.20422 0.00000 -33.20422 0.00000 0.00000 0.00000 ; methylguanidinium ion
4097 4096 4104 4105 3 33.20422 0.00000 -33.20422 0.00000 0.00000 0.00000 ; methylguanidinium ion
4098 4099 9334 9333 3 1.58992 4.76976 0.00000 -6.35968 0.00000 0.00000
4098 4099 9334 9335 3 1.58992 4.76976 0.00000 -6.35968 0.00000 0.00000
4098 4099 9334 9336 3 1.58992 4.76976 0.00000 -6.35968 0.00000 0.00000
4099 9334 9333 9332 3 1.78866 3.49154 0.53555 -5.81576 0.00000 0.00000
4099 9334 9333 9337 3 -1.26775 3.02085 1.74473 -3.49782 0.00000 0.00000
4104 4096 4097 4098 3 33.20422 0.00000 -33.20422 0.00000 0.00000 0.00000 ; methylguanidinium ion
4104 4096 4097 4102 3 20.50160 0.00000 -20.50160 0.00000 0.00000 0.00000 ; imides
4105 4085 4086 4087 3 33.20422 0.00000 -33.20422 0.00000 0.00000 0.00000 ; methylguanidinium ion
4105 4085 4086 4095 3 30.28798 -4.81160 -25.47638 0.00000 0.00000 0.00000 ; imides
4107 4108 9729 9728 3 1.58992 4.76976 0.00000 -6.35968 0.00000 0.00000
4107 4108 9729 9730 3 1.58992 4.76976 0.00000 -6.35968 0.00000 0.00000
4107 4108 9729 9731 3 1.58992 4.76976 0.00000 -6.35968 0.00000 0.00000
4108 9729 9728 9727 3 1.78866 3.49154 0.53555 -5.81576 0.00000 0.00000
4108 9729 9728 9732 3 -1.26775 3.02085 1.74473 -3.49782 0.00000 0.00000
4113 4114 4122 4123 3 30.28798 -4.81160 -25.47638 0.00000 0.00000 0.00000 ; imides
4113 4132 4133 4134 3 33.20422 0.00000 -33.20422 0.00000 0.00000 0.00000 ; methylguanidinium ion
4113 4132 4133 4137 3 20.50160 0.00000 -20.50160 0.00000 0.00000 0.00000 ; imides
4114 4113 4132 4131 3 30.28798 -4.81160 -25.47638 0.00000 0.00000 0.00000 ; imides
4114 4113 4132 4133 3 33.20422 0.00000 -33.20422 0.00000 0.00000 0.00000 ; methylguanidinium ion
4114 4122 4123 4124 3 33.20422 0.00000 -33.20422 0.00000 0.00000 0.00000 ; methylguanidinium ion
4114 4122 4123 4131 3 30.28798 -4.81160 -25.47638 0.00000 0.00000 0.00000 ; imides
4115 4114 4122 4123 3 33.20422 0.00000 -33.20422 0.00000 0.00000 0.00000 ; methylguanidinium ion
4116 4117 6604 6603 3 1.58992 4.76976 0.00000 -6.35968 0.00000 0.00000
4116 4117 6604 6605 3 1.58992 4.76976 0.00000 -6.35968 0.00000 0.00000
4116 4117 6604 6606 3 1.58992 4.76976 0.00000 -6.35968 0.00000 0.00000
4117 6604 6603 6602 3 1.78866 3.49154 0.53555 -5.81576 0.00000 0.00000
4117 6604 6603 6607 3 -1.26775 3.02085 1.74473 -3.49782 0.00000 0.00000
4122 4114 4115 4116 3 33.20422 0.00000 -33.20422 0.00000 0.00000 0.00000 ; methylguanidinium ion
4122 4114 4115 4120 3 20.50160 0.00000 -20.50160 0.00000 0.00000 0.00000 ; imides
4122 4123 4131 4132 3 30.28798 -4.81160 -25.47638 0.00000 0.00000 0.00000 ; imides
4123 4131 4132 4113 3 30.28798 -4.81160 -25.47638 0.00000 0.00000 0.00000 ; imides
4123 4131 4132 4133 3 33.20422 0.00000 -33.20422 0.00000 0.00000 0.00000 ; methylguanidinium ion
4124 4123 4131 4132 3 33.20422 0.00000 -33.20422 0.00000 0.00000 0.00000 ; methylguanidinium ion
4125 4126 7351 7350 3 1.58992 4.76976 0.00000 -6.35968 0.00000 0.00000
4125 4126 7351 7352 3 1.58992 4.76976 0.00000 -6.35968 0.00000 0.00000
4125 4126 7351 7353 3 1.58992 4.76976 0.00000 -6.35968 0.00000 0.00000
4126 7351 7350 7349 3 1.78866 3.49154 0.53555 -5.81576 0.00000 0.00000
4126 7351 7350 7354 3 -1.26775 3.02085 1.74473 -3.49782 0.00000 0.00000
4131 4123 4124 4125 3 33.20422 0.00000 -33.20422 0.00000 0.00000 0.00000 ; methylguanidinium ion
4131 4123 4124 4129 3 20.50160 0.00000 -20.50160 0.00000 0.00000 0.00000 ; imides
4132 4113 4114 4115 3 33.20422 0.00000 -33.20422 0.00000 0.00000 0.00000 ; methylguanidinium ion
4132 4113 4114 4122 3 30.28798 -4.81160 -25.47638 0.00000 0.00000 0.00000 ; imides
4134 3202 3201 3200 3 1.58992 4.76976 0.00000 -6.35968 0.00000 0.00000
4134 3202 3201 3203 3 1.58992 4.76976 0.00000 -6.35968 0.00000 0.00000
4134 3202 3201 3204 3 1.58992 4.76976 0.00000 -6.35968 0.00000 0.00000
4139 4140 4148 4149 3 30.28798 -4.81160 -25.47638 0.00000 0.00000 0.00000 ; imides
4139 4157 4158 4159 3 33.20422 0.00000 -33.20422 0.00000 0.00000 0.00000 ; methylguanidinium ion
4139 4157 4158 4163 3 20.50160 0.00000 -20.50160 0.00000 0.00000 0.00000 ; imides
4140 4139 4157 4156 3 30.28798 -4.81160 -25.47638 0.00000 0.00000 0.00000 ; imides
4140 4139 4157 4158 3 33.20422 0.00000 -33.20422 0.00000 0.00000 0.00000 ; methylguanidinium ion
4140 4148 4149 4150 3 33.20422 0.00000 -33.20422 0.00000 0.00000 0.00000 ; methylguanidinium ion
4140 4148 4149 4156 3 30.28798 -4.81160 -25.47638 0.00000 0.00000 0.00000 ; imides
4141 4140 4148 4149 3 33.20422 0.00000 -33.20422 0.00000 0.00000 0.00000 ; methylguanidinium ion
4142 4143 5841 5840 3 1.58992 4.76976 0.00000 -6.35968 0.00000 0.00000
4142 4143 5841 5842 3 1.58992 4.76976 0.00000 -6.35968 0.00000 0.00000
4142 4143 5841 5843 3 1.58992 4.76976 0.00000 -6.35968 0.00000 0.00000
4143 5841 5840 5839 3 1.78866 3.49154 0.53555 -5.81576 0.00000 0.00000
4143 5841 5840 5844 3 -1.26775 3.02085 1.74473 -3.49782 0.00000 0.00000
4148 4140 4141 4142 3 33.20422 0.00000 -33.20422 0.00000 0.00000 0.00000 ; methylguanidinium ion
4148 4140 4141 4146 3 20.50160 0.00000 -20.50160 0.00000 0.00000 0.00000 ; imides
4148 4149 4156 4157 3 30.28798 -4.81160 -25.47638 0.00000 0.00000 0.00000 ; imides
4149 4156 4157 4139 3 30.28798 -4.81160 -25.47638 0.00000 0.00000 0.00000 ; imides
4149 4156 4157 4158 3 33.20422 0.00000 -33.20422 0.00000 0.00000 0.00000 ; methylguanidinium ion
4150 4149 4156 4157 3 33.20422 0.00000 -33.20422 0.00000 0.00000 0.00000 ; methylguanidinium ion
4151 62 61 60 3 1.58992 4.76976 0.00000 -6.35968 0.00000 0.00000
4151 62 61 63 3 1.58992 4.76976 0.00000 -6.35968 0.00000 0.00000
4151 62 61 64 3 1.58992 4.76976 0.00000 -6.35968 0.00000 0.00000
4156 4149 4150 4151 3 33.20422 0.00000 -33.20422 0.00000 0.00000 0.00000 ; methylguanidinium ion
4156 4149 4150 4154 3 20.50160 0.00000 -20.50160 0.00000 0.00000 0.00000 ; imides
4157 4139 4140 4141 3 33.20422 0.00000 -33.20422 0.00000 0.00000 0.00000 ; methylguanidinium ion
4157 4139 4140 4148 3 30.28798 -4.81160 -25.47638 0.00000 0.00000 0.00000 ; imides
4159 4160 12964 12963 3 1.58992 4.76976 0.00000 -6.35968 0.00000 0.00000
4159 4160 12964 12965 3 1.58992 4.76976 0.00000 -6.35968 0.00000 0.00000
4159 4160 12964 12966 3 1.58992 4.76976 0.00000 -6.35968 0.00000 0.00000
4160 12964 12963 12962 3 1.78866 3.49154 0.53555 -5.81576 0.00000 0.00000
4160 12964 12963 12967 3 -1.26775 3.02085 1.74473 -3.49782 0.00000 0.00000
4165 4166 4173 4174 3 30.28798 -4.81160 -25.47638 0.00000 0.00000 0.00000 ; imides
4165 4184 4185 4186 3 33.20422 0.00000 -33.20422 0.00000 0.00000 0.00000 ; methylguanidinium ion
4165 4184 4185 4190 3 20.50160 0.00000 -20.50160 0.00000 0.00000 0.00000 ; imides
4166 4165 4184 4183 3 30.28798 -4.81160 -25.47638 0.00000 0.00000 0.00000 ; imides
4166 4165 4184 4185 3 33.20422 0.00000 -33.20422 0.00000 0.00000 0.00000 ; methylguanidinium ion
4166 4173 4174 4175 3 33.20422 0.00000 -33.20422 0.00000 0.00000 0.00000 ; methylguanidinium ion
4166 4173 4174 4183 3 30.28798 -4.81160 -25.47638 0.00000 0.00000 0.00000 ; imides
4167 4166 4173 4174 3 33.20422 0.00000 -33.20422 0.00000 0.00000 0.00000 ; methylguanidinium ion
4168 1442 1441 1440 3 1.58992 4.76976 0.00000 -6.35968 0.00000 0.00000
4168 1442 1441 1443 3 1.58992 4.76976 0.00000 -6.35968 0.00000 0.00000
4168 1442 1441 1444 3 1.58992 4.76976 0.00000 -6.35968 0.00000 0.00000
4173 4166 4167 4168 3 33.20422 0.00000 -33.20422 0.00000 0.00000 0.00000 ; methylguanidinium ion
4173 4166 4167 4171 3 20.50160 0.00000 -20.50160 0.00000 0.00000 0.00000 ; imides
4173 4174 4183 4184 3 30.28798 -4.81160 -25.47638 0.00000 0.00000 0.00000 ; imides
4174 4183 4184 4165 3 30.28798 -4.81160 -25.47638 0.00000 0.00000 0.00000 ; imides
4174 4183 4184 4185 3 33.20422 0.00000 -33.20422 0.00000 0.00000 0.00000 ; methylguanidinium ion
4175 4174 4183 4184 3 33.20422 0.00000 -33.20422 0.00000 0.00000 0.00000 ; methylguanidinium ion
4183 4174 4175 4176 3 33.20422 0.00000 -33.20422 0.00000 0.00000 0.00000 ; methylguanidinium ion
4183 4174 4175 4181 3 20.50160 0.00000 -20.50160 0.00000 0.00000 0.00000 ; imides
4184 4165 4166 4167 3 33.20422 0.00000 -33.20422 0.00000 0.00000 0.00000 ; methylguanidinium ion
4184 4165 4166 4173 3 30.28798 -4.81160 -25.47638 0.00000 0.00000 0.00000 ; imides
4186 4187 6494 6493 3 1.58992 4.76976 0.00000 -6.35968 0.00000 0.00000
4186 4187 6494 6495 3 1.58992 4.76976 0.00000 -6.35968 0.00000 0.00000
4186 4187 6494 6496 3 1.58992 4.76976 0.00000 -6.35968 0.00000 0.00000
4187 6494 6493 6492 3 1.78866 3.49154 0.53555 -5.81576 0.00000 0.00000
4187 6494 6493 6497 3 -1.26775 3.02085 1.74473 -3.49782 0.00000 0.00000
4192 4193 4202 4203 3 30.28798 -4.81160 -25.47638 0.00000 0.00000 0.00000 ; imides
4192 4212 4213 4214 3 33.20422 0.00000 -33.20422 0.00000 0.00000 0.00000 ; methylguanidinium ion
4192 4212 4213 4218 3 20.50160 0.00000 -20.50160 0.00000 0.00000 0.00000 ; imides
4193 4192 4212 4211 3 30.28798 -4.81160 -25.47638 0.00000 0.00000 0.00000 ; imides
4193 4192 4212 4213 3 33.20422 0.00000 -33.20422 0.00000 0.00000 0.00000 ; methylguanidinium ion
4193 4202 4203 4204 3 33.20422 0.00000 -33.20422 0.00000 0.00000 0.00000 ; methylguanidinium ion
4193 4202 4203 4211 3 30.28798 -4.81160 -25.47638 0.00000 0.00000 0.00000 ; imides
4194 4193 4202 4203 3 33.20422 0.00000 -33.20422 0.00000 0.00000 0.00000 ; methylguanidinium ion
4202 4193 4194 4195 3 33.20422 0.00000 -33.20422 0.00000 0.00000 0.00000 ; methylguanidinium ion
4202 4193 4194 4200 3 20.50160 0.00000 -20.50160 0.00000 0.00000 0.00000 ; imides
4202 4203 4211 4212 3 30.28798 -4.81160 -25.47638 0.00000 0.00000 0.00000 ; imides
4203 4211 4212 4192 3 30.28798 -4.81160 -25.47638 0.00000 0.00000 0.00000 ; imides
4203 4211 4212 4213 3 33.20422 0.00000 -33.20422 0.00000 0.00000 0.00000 ; methylguanidinium ion
4204 4203 4211 4212 3 33.20422 0.00000 -33.20422 0.00000 0.00000 0.00000 ; methylguanidinium ion
4205 4206 11981 11980 3 1.58992 4.76976 0.00000 -6.35968 0.00000 0.00000
4205 4206 11981 11982 3 1.58992 4.76976 0.00000 -6.35968 0.00000 0.00000
4205 4206 11981 11983 3 1.58992 4.76976 0.00000 -6.35968 0.00000 0.00000
4206 11981 11980 11979 3 1.78866 3.49154 0.53555 -5.81576 0.00000 0.00000
4206 11981 11980 11984 3 -1.26775 3.02085 1.74473 -3.49782 0.00000 0.00000
4211 4203 4204 4205 3 33.20422 0.00000 -33.20422 0.00000 0.00000 0.00000 ; methylguanidinium ion
4211 4203 4204 4209 3 20.50160 0.00000 -20.50160 0.00000 0.00000 0.00000 ; imides
4212 4192 4193 4194 3 33.20422 0.00000 -33.20422 0.00000 0.00000 0.00000 ; methylguanidinium ion
4212 4192 4193 4202 3 30.28798 -4.81160 -25.47638 0.00000 0.00000 0.00000 ; imides
4214 4215 8499 8498 3 1.58992 4.76976 0.00000 -6.35968 0.00000 0.00000
4214 4215 8499 8500 3 1.58992 4.76976 0.00000 -6.35968 0.00000 0.00000
4214 4215 8499 8501 3 1.58992 4.76976 0.00000 -6.35968 0.00000 0.00000
4215 8499 8498 8497 3 1.78866 3.49154 0.53555 -5.81576 0.00000 0.00000
4215 8499 8498 8502 3 -1.26775 3.02085 1.74473 -3.49782 0.00000 0.00000
4220 4221 4230 4231 3 30.28798 -4.81160 -25.47638 0.00000 0.00000 0.00000 ; imides
4220 4240 4241 4242 3 33.20422 0.00000 -33.20422 0.00000 0.00000 0.00000 ; methylguanidinium ion
4220 4240 4241 4246 3 20.50160 0.00000 -20.50160 0.00000 0.00000 0.00000 ; imides
4221 4220 4240 4239 3 30.28798 -4.81160 -25.47638 0.00000 0.00000 0.00000 ; imides
4221 4220 4240 4241 3 33.20422 0.00000 -33.20422 0.00000 0.00000 0.00000 ; methylguanidinium ion
4221 4230 4231 4232 3 33.20422 0.00000 -33.20422 0.00000 0.00000 0.00000 ; methylguanidinium ion
4221 4230 4231 4239 3 30.28798 -4.81160 -25.47638 0.00000 0.00000 0.00000 ; imides
4222 4221 4230 4231 3 33.20422 0.00000 -33.20422 0.00000 0.00000 0.00000 ; methylguanidinium ion
4230 4221 4222 4223 3 33.20422 0.00000 -33.20422 0.00000 0.00000 0.00000 ; methylguanidinium ion
4230 4221 4222 4228 3 20.50160 0.00000 -20.50160 0.00000 0.00000 0.00000 ; imides
4230 4231 4239 4240 3 30.28798 -4.81160 -25.47638 0.00000 0.00000 0.00000 ; imides
4231 4239 4240 4220 3 30.28798 -4.81160 -25.47638 0.00000 0.00000 0.00000 ; imides
4231 4239 4240 4241 3 33.20422 0.00000 -33.20422 0.00000 0.00000 0.00000 ; methylguanidinium ion
4232 4231 4239 4240 3 33.20422 0.00000 -33.20422 0.00000 0.00000 0.00000 ; methylguanidinium ion
4233 4234 11610 11609 3 1.58992 4.76976 0.00000 -6.35968 0.00000 0.00000
4233 4234 11610 11611 3 1.58992 4.76976 0.00000 -6.35968 0.00000 0.00000
4233 4234 11610 11612 3 1.58992 4.76976 0.00000 -6.35968 0.00000 0.00000
4234 11610 11609 11608 3 1.78866 3.49154 0.53555 -5.81576 0.00000 0.00000
4234 11610 11609 11613 3 -1.26775 3.02085 1.74473 -3.49782 0.00000 0.00000
4239 4231 4232 4233 3 33.20422 0.00000 -33.20422 0.00000 0.00000 0.00000 ; methylguanidinium ion
4239 4231 4232 4237 3 20.50160 0.00000 -20.50160 0.00000 0.00000 0.00000 ; imides
4240 4220 4221 4222 3 33.20422 0.00000 -33.20422 0.00000 0.00000 0.00000 ; methylguanidinium ion
4240 4220 4221 4230 3 30.28798 -4.81160 -25.47638 0.00000 0.00000 0.00000 ; imides
4242 4243 6545 6544 3 1.58992 4.76976 0.00000 -6.35968 0.00000 0.00000
4242 4243 6545 6546 3 1.58992 4.76976 0.00000 -6.35968 0.00000 0.00000
4242 4243 6545 6547 3 1.58992 4.76976 0.00000 -6.35968 0.00000 0.00000
4243 6545 6544 6543 3 1.78866 3.49154 0.53555 -5.81576 0.00000 0.00000
4243 6545 6544 6548 3 -1.26775 3.02085 1.74473 -3.49782 0.00000 0.00000
4248 4249 4257 4258 3 30.28798 -4.81160 -25.47638 0.00000 0.00000 0.00000 ; imides
4248 4268 4269 4270 3 33.20422 0.00000 -33.20422 0.00000 0.00000 0.00000 ; methylguanidinium ion
4248 4268 4269 4274 3 20.50160 0.00000 -20.50160 0.00000 0.00000 0.00000 ; imides
4249 4248 4268 4267 3 30.28798 -4.81160 -25.47638 0.00000 0.00000 0.00000 ; imides
4249 4248 4268 4269 3 33.20422 0.00000 -33.20422 0.00000 0.00000 0.00000 ; methylguanidinium ion
4249 4257 4258 4259 3 33.20422 0.00000 -33.20422 0.00000 0.00000 0.00000 ; methylguanidinium ion
4249 4257 4258 4267 3 30.28798 -4.81160 -25.47638 0.00000 0.00000 0.00000 ; imides
4250 4249 4257 4258 3 33.20422 0.00000 -33.20422 0.00000 0.00000 0.00000 ; methylguanidinium ion
4251 4252 12536 12535 3 1.58992 4.76976 0.00000 -6.35968 0.00000 0.00000
4251 4252 12536 12537 3 1.58992 4.76976 0.00000 -6.35968 0.00000 0.00000
4251 4252 12536 12538 3 1.58992 4.76976 0.00000 -6.35968 0.00000 0.00000
4252 12536 12535 12534 3 1.78866 3.49154 0.53555 -5.81576 0.00000 0.00000
4252 12536 12535 12539 3 -1.26775 3.02085 1.74473 -3.49782 0.00000 0.00000
4257 4249 4250 4251 3 33.20422 0.00000 -33.20422 0.00000 0.00000 0.00000 ; methylguanidinium ion
4257 4249 4250 4255 3 20.50160 0.00000 -20.50160 0.00000 0.00000 0.00000 ; imides
4257 4258 4267 4268 3 30.28798 -4.81160 -25.47638 0.00000 0.00000 0.00000 ; imides
4258 4267 4268 4248 3 30.28798 -4.81160 -25.47638 0.00000 0.00000 0.00000 ; imides
4258 4267 4268 4269 3 33.20422 0.00000 -33.20422 0.00000 0.00000 0.00000 ; methylguanidinium ion
4259 4258 4267 4268 3 33.20422 0.00000 -33.20422 0.00000 0.00000 0.00000 ; methylguanidinium ion
4267 4258 4259 4260 3 33.20422 0.00000 -33.20422 0.00000 0.00000 0.00000 ; methylguanidinium ion
4267 4258 4259 4265 3 20.50160 0.00000 -20.50160 0.00000 0.00000 0.00000 ; imides
4268 4248 4249 4250 3 33.20422 0.00000 -33.20422 0.00000 0.00000 0.00000 ; methylguanidinium ion
4268 4248 4249 4257 3 30.28798 -4.81160 -25.47638 0.00000 0.00000 0.00000 ; imides
4270 4271 4611 4610 3 1.58992 4.76976 0.00000 -6.35968 0.00000 0.00000
4270 4271 4611 4612 3 1.58992 4.76976 0.00000 -6.35968 0.00000 0.00000
4270 4271 4611 4613 3 1.58992 4.76976 0.00000 -6.35968 0.00000 0.00000
4271 4611 4610 4609 3 1.78866 3.49154 0.53555 -5.81576 0.00000 0.00000
4271 4611 4610 4614 3 -1.26775 3.02085 1.74473 -3.49782 0.00000 0.00000
4276 4277 4284 4285 3 30.28798 -4.81160 -25.47638 0.00000 0.00000 0.00000 ; imides
4276 4295 4296 4297 3 33.20422 0.00000 -33.20422 0.00000 0.00000 0.00000 ; methylguanidinium ion
4276 4295 4296 4301 3 20.50160 0.00000 -20.50160 0.00000 0.00000 0.00000 ; imides
4277 4276 4295 4294 3 30.28798 -4.81160 -25.47638 0.00000 0.00000 0.00000 ; imides
4277 4276 4295 4296 3 33.20422 0.00000 -33.20422 0.00000 0.00000 0.00000 ; methylguanidinium ion
4277 4284 4285 4286 3 33.20422 0.00000 -33.20422 0.00000 0.00000 0.00000 ; methylguanidinium ion
4277 4284 4285 4294 3 30.28798 -4.81160 -25.47638 0.00000 0.00000 0.00000 ; imides
4278 4277 4284 4285 3 33.20422 0.00000 -33.20422 0.00000 0.00000 0.00000 ; methylguanidinium ion
4279 1388 1387 1386 3 1.58992 4.76976 0.00000 -6.35968 0.00000 0.00000
4279 1388 1387 1389 3 1.58992 4.76976 0.00000 -6.35968 0.00000 0.00000
4279 1388 1387 1390 3 1.58992 4.76976 0.00000 -6.35968 0.00000 0.00000
4284 4277 4278 4279 3 33.20422 0.00000 -33.20422 0.00000 0.00000 0.00000 ; methylguanidinium ion
4284 4277 4278 4282 3 20.50160 0.00000 -20.50160 0.00000 0.00000 0.00000 ; imides
4284 4285 4294 4295 3 30.28798 -4.81160 -25.47638 0.00000 0.00000 0.00000 ; imides
4285 4294 4295 4276 3 30.28798 -4.81160 -25.47638 0.00000 0.00000 0.00000 ; imides
4285 4294 4295 4296 3 33.20422 0.00000 -33.20422 0.00000 0.00000 0.00000 ; methylguanidinium ion
4286 4285 4294 4295 3 33.20422 0.00000 -33.20422 0.00000 0.00000 0.00000 ; methylguanidinium ion
4294 4285 4286 4287 3 33.20422 0.00000 -33.20422 0.00000 0.00000 0.00000 ; methylguanidinium ion
4294 4285 4286 4292 3 20.50160 0.00000 -20.50160 0.00000 0.00000 0.00000 ; imides
4295 4276 4277 4278 3 33.20422 0.00000 -33.20422 0.00000 0.00000 0.00000 ; methylguanidinium ion
4295 4276 4277 4284 3 30.28798 -4.81160 -25.47638 0.00000 0.00000 0.00000 ; imides
4297 4298 12075 12074 3 1.58992 4.76976 0.00000 -6.35968 0.00000 0.00000
4297 4298 12075 12076 3 1.58992 4.76976 0.00000 -6.35968 0.00000 0.00000
4297 4298 12075 12077 3 1.58992 4.76976 0.00000 -6.35968 0.00000 0.00000
4298 12075 12074 12073 3 1.78866 3.49154 0.53555 -5.81576 0.00000 0.00000
4298 12075 12074 12078 3 -1.26775 3.02085 1.74473 -3.49782 0.00000 0.00000
4303 4304 4312 4313 3 30.28798 -4.81160 -25.47638 0.00000 0.00000 0.00000 ; imides
4303 4321 4322 4323 3 33.20422 0.00000 -33.20422 0.00000 0.00000 0.00000 ; methylguanidinium ion
4303 4321 4322 4327 3 20.50160 0.00000 -20.50160 0.00000 0.00000 0.00000 ; imides
4304 4303 4321 4320 3 30.28798 -4.81160 -25.47638 0.00000 0.00000 0.00000 ; imides
4304 4303 4321 4322 3 33.20422 0.00000 -33.20422 0.00000 0.00000 0.00000 ; methylguanidinium ion
4304 4312 4313 4314 3 33.20422 0.00000 -33.20422 0.00000 0.00000 0.00000 ; methylguanidinium ion
4304 4312 4313 4320 3 30.28798 -4.81160 -25.47638 0.00000 0.00000 0.00000 ; imides
4305 4304 4312 4313 3 33.20422 0.00000 -33.20422 0.00000 0.00000 0.00000 ; methylguanidinium ion
4306 4307 5666 5665 3 1.58992 4.76976 0.00000 -6.35968 0.00000 0.00000
4306 4307 5666 5667 3 1.58992 4.76976 0.00000 -6.35968 0.00000 0.00000
4306 4307 5666 5668 3 1.58992 4.76976 0.00000 -6.35968 0.00000 0.00000
4307 5666 5665 5664 3 1.78866 3.49154 0.53555 -5.81576 0.00000 0.00000
4307 5666 5665 5669 3 -1.26775 3.02085 1.74473 -3.49782 0.00000 0.00000
4312 4304 4305 4306 3 33.20422 0.00000 -33.20422 0.00000 0.00000 0.00000 ; methylguanidinium ion
4312 4304 4305 4310 3 20.50160 0.00000 -20.50160 0.00000 0.00000 0.00000 ; imides
4312 4313 4320 4321 3 30.28798 -4.81160 -25.47638 0.00000 0.00000 0.00000 ; imides
4313 4320 4321 4303 3 30.28798 -4.81160 -25.47638 0.00000 0.00000 0.00000 ; imides
4313 4320 4321 4322 3 33.20422 0.00000 -33.20422 0.00000 0.00000 0.00000 ; methylguanidinium ion
4314 4313 4320 4321 3 33.20422 0.00000 -33.20422 0.00000 0.00000 0.00000 ; methylguanidinium ion
4315 15 14 13 3 1.58992 4.76976 0.00000 -6.35968 0.00000 0.00000
4315 15 14 16 3 1.58992 4.76976 0.00000 -6.35968 0.00000 0.00000
4315 15 14 17 3 1.58992 4.76976 0.00000 -6.35968 0.00000 0.00000
4320 4313 4314 4315 3 33.20422 0.00000 -33.20422 0.00000 0.00000 0.00000 ; methylguanidinium ion
4320 4313 4314 4318 3 20.50160 0.00000 -20.50160 0.00000 0.00000 0.00000 ; imides
4321 4303 4304 4305 3 33.20422 0.00000 -33.20422 0.00000 0.00000 0.00000 ; methylguanidinium ion
4321 4303 4304 4312 3 30.28798 -4.81160 -25.47638 0.00000 0.00000 0.00000 ; imides
4323 4324 8193 8192 3 1.58992 4.76976 0.00000 -6.35968 0.00000 0.00000
4323 4324 8193 8194 3 1.58992 4.76976 0.00000 -6.35968 0.00000 0.00000
4323 4324 8193 8195 3 1.58992 4.76976 0.00000 -6.35968 0.00000 0.00000
4324 8193 8192 8191 3 1.78866 3.49154 0.53555 -5.81576 0.00000 0.00000
4324 8193 8192 8196 3 -1.26775 3.02085 1.74473 -3.49782 0.00000 0.00000
4329 4330 4337 4338 3 30.28798 -4.81160 -25.47638 0.00000 0.00000 0.00000 ; imides
4329 4347 4348 4349 3 33.20422 0.00000 -33.20422 0.00000 0.00000 0.00000 ; methylguanidinium ion
4329 4347 4348 4353 3 20.50160 0.00000 -20.50160 0.00000 0.00000 0.00000 ; imides
4330 4329 4347 4346 3 30.28798 -4.81160 -25.47638 0.00000 0.00000 0.00000 ; imides
4330 4329 4347 4348 3 33.20422 0.00000 -33.20422 0.00000 0.00000 0.00000 ; methylguanidinium ion
4330 4337 4338 4339 3 33.20422 0.00000 -33.20422 0.00000 0.00000 0.00000 ; methylguanidinium ion
4330 4337 4338 4346 3 30.28798 -4.81160 -25.47638 0.00000 0.00000 0.00000 ; imides
4331 4330 4337 4338 3 33.20422 0.00000 -33.20422 0.00000 0.00000 0.00000 ; methylguanidinium ion
4332 3373 3372 3371 3 1.58992 4.76976 0.00000 -6.35968 0.00000 0.00000
4332 3373 3372 3374 3 1.58992 4.76976 0.00000 -6.35968 0.00000 0.00000
4332 3373 3372 3375 3 1.58992 4.76976 0.00000 -6.35968 0.00000 0.00000
4337 4330 4331 4332 3 33.20422 0.00000 -33.20422 0.00000 0.00000 0.00000 ; methylguanidinium ion
4337 4330 4331 4335 3 20.50160 0.00000 -20.50160 0.00000 0.00000 0.00000 ; imides
4337 4338 4346 4347 3 30.28798 -4.81160 -25.47638 0.00000 0.00000 0.00000 ; imides
4338 4346 4347 4329 3 30.28798 -4.81160 -25.47638 0.00000 0.00000 0.00000 ; imides
4338 4346 4347 4348 3 33.20422 0.00000 -33.20422 0.00000 0.00000 0.00000 ; methylguanidinium ion
4339 4338 4346 4347 3 33.20422 0.00000 -33.20422 0.00000 0.00000 0.00000 ; methylguanidinium ion
4340 4341 10460 10459 3 1.58992 4.76976 0.00000 -6.35968 0.00000 0.00000
4340 4341 10460 10461 3 1.58992 4.76976 0.00000 -6.35968 0.00000 0.00000
4340 4341 10460 10462 3 1.58992 4.76976 0.00000 -6.35968 0.00000 0.00000
4341 10460 10459 10458 3 1.78866 3.49154 0.53555 -5.81576 0.00000 0.00000
4341 10460 10459 10463 3 -1.26775 3.02085 1.74473 -3.49782 0.00000 0.00000
4346 4338 4339 4340 3 33.20422 0.00000 -33.20422 0.00000 0.00000 0.00000 ; methylguanidinium ion
4346 4338 4339 4344 3 20.50160 0.00000 -20.50160 0.00000 0.00000 0.00000 ; imides
4347 4329 4330 4331 3 33.20422 0.00000 -33.20422 0.00000 0.00000 0.00000 ; methylguanidinium ion
4347 4329 4330 4337 3 30.28798 -4.81160 -25.47638 0.00000 0.00000 0.00000 ; imides
4349 4350 5969 5968 3 1.58992 4.76976 0.00000 -6.35968 0.00000 0.00000
4349 4350 5969 5970 3 1.58992 4.76976 0.00000 -6.35968 0.00000 0.00000
4349 4350 5969 5971 3 1.58992 4.76976 0.00000 -6.35968 0.00000 0.00000
4350 5969 5968 5967 3 1.78866 3.49154 0.53555 -5.81576 0.00000 0.00000
4350 5969 5968 5972 3 -1.26775 3.02085 1.74473 -3.49782 0.00000 0.00000
4355 4356 4363 4364 3 30.28798 -4.81160 -25.47638 0.00000 0.00000 0.00000 ; imides
4355 4372 4373 4374 3 33.20422 0.00000 -33.20422 0.00000 0.00000 0.00000 ; methylguanidinium ion
4355 4372 4373 4377 3 20.50160 0.00000 -20.50160 0.00000 0.00000 0.00000 ; imides
4356 4355 4372 4371 3 30.28798 -4.81160 -25.47638 0.00000 0.00000 0.00000 ; imides
4356 4355 4372 4373 3 33.20422 0.00000 -33.20422 0.00000 0.00000 0.00000 ; methylguanidinium ion
4356 4363 4364 4365 3 33.20422 0.00000 -33.20422 0.00000 0.00000 0.00000 ; methylguanidinium ion
4356 4363 4364 4371 3 30.28798 -4.81160 -25.47638 0.00000 0.00000 0.00000 ; imides
4357 4356 4363 4364 3 33.20422 0.00000 -33.20422 0.00000 0.00000 0.00000 ; methylguanidinium ion
4358 1916 1915 1914 3 1.58992 4.76976 0.00000 -6.35968 0.00000 0.00000
4358 1916 1915 1917 3 1.58992 4.76976 0.00000 -6.35968 0.00000 0.00000
4358 1916 1915 1918 3 1.58992 4.76976 0.00000 -6.35968 0.00000 0.00000
4363 4356 4357 4358 3 33.20422 0.00000 -33.20422 0.00000 0.00000 0.00000 ; methylguanidinium ion
4363 4356 4357 4361 3 20.50160 0.00000 -20.50160 0.00000 0.00000 0.00000 ; imides
4363 4364 4371 4372 3 30.28798 -4.81160 -25.47638 0.00000 0.00000 0.00000 ; imides
4364 4371 4372 4355 3 30.28798 -4.81160 -25.47638 0.00000 0.00000 0.00000 ; imides
4364 4371 4372 4373 3 33.20422 0.00000 -33.20422 0.00000 0.00000 0.00000 ; methylguanidinium ion
4365 4364 4371 4372 3 33.20422 0.00000 -33.20422 0.00000 0.00000 0.00000 ; methylguanidinium ion
4366 3273 3272 3271 3 1.58992 4.76976 0.00000 -6.35968 0.00000 0.00000
4366 3273 3272 3274 3 1.58992 4.76976 0.00000 -6.35968 0.00000 0.00000
4366 3273 3272 3275 3 1.58992 4.76976 0.00000 -6.35968 0.00000 0.00000
4371 4364 4365 4366 3 33.20422 0.00000 -33.20422 0.00000 0.00000 0.00000 ; methylguanidinium ion
4371 4364 4365 4369 3 20.50160 0.00000 -20.50160 0.00000 0.00000 0.00000 ; imides
4372 4355 4356 4357 3 33.20422 0.00000 -33.20422 0.00000 0.00000 0.00000 ; methylguanidinium ion
4372 4355 4356 4363 3 30.28798 -4.81160 -25.47638 0.00000 0.00000 0.00000 ; imides
4374 2498 2497 2496 3 1.58992 4.76976 0.00000 -6.35968 0.00000 0.00000
4374 2498 2497 2499 3 1.58992 4.76976 0.00000 -6.35968 0.00000 0.00000
4374 2498 2497 2500 3 1.58992 4.76976 0.00000 -6.35968 0.00000 0.00000
4379 4380 4388 4389 3 30.28798 -4.81160 -25.47638 0.00000 0.00000 0.00000 ; imides
4379 4398 4399 4400 3 33.20422 0.00000 -33.20422 0.00000 0.00000 0.00000 ; methylguanidinium ion
4379 4398 4399 4405 3 20.50160 0.00000 -20.50160 0.00000 0.00000 0.00000 ; imides
4380 4379 4398 4397 3 30.28798 -4.81160 -25.47638 0.00000 0.00000 0.00000 ; imides
4380 4379 4398 4399 3 33.20422 0.00000 -33.20422 0.00000 0.00000 0.00000 ; methylguanidinium ion
4380 4388 4389 4390 3 33.20422 0.00000 -33.20422 0.00000 0.00000 0.00000 ; methylguanidinium ion
4380 4388 4389 4397 3 30.28798 -4.81160 -25.47638 0.00000 0.00000 0.00000 ; imides
4381 4380 4388 4389 3 33.20422 0.00000 -33.20422 0.00000 0.00000 0.00000 ; methylguanidinium ion
4382 4383 12314 12313 3 1.58992 4.76976 0.00000 -6.35968 0.00000 0.00000
4382 4383 12314 12315 3 1.58992 4.76976 0.00000 -6.35968 0.00000 0.00000
4382 4383 12314 12316 3 1.58992 4.76976 0.00000 -6.35968 0.00000 0.00000
4383 12314 12313 12312 3 1.78866 3.49154 0.53555 -5.81576 0.00000 0.00000
4383 12314 12313 12317 3 -1.26775 3.02085 1.74473 -3.49782 0.00000 0.00000
4388 4380 4381 4382 3 33.20422 0.00000 -33.20422 0.00000 0.00000 0.00000 ; methylguanidinium ion
4388 4380 4381 4386 3 20.50160 0.00000 -20.50160 0.00000 0.00000 0.00000 ; imides
4388 4389 4397 4398 3 30.28798 -4.81160 -25.47638 0.00000 0.00000 0.00000 ; imides
4389 4397 4398 4379 3 30.28798 -4.81160 -25.47638 0.00000 0.00000 0.00000 ; imides
4389 4397 4398 4399 3 33.20422 0.00000 -33.20422 0.00000 0.00000 0.00000 ; methylguanidinium ion
4390 4389 4397 4398 3 33.20422 0.00000 -33.20422 0.00000 0.00000 0.00000 ; methylguanidinium ion
4391 4392 7617 7616 3 1.58992 4.76976 0.00000 -6.35968 0.00000 0.00000
4391 4392 7617 7618 3 1.58992 4.76976 0.00000 -6.35968 0.00000 0.00000
4391 4392 7617 7619 3 1.58992 4.76976 0.00000 -6.35968 0.00000 0.00000
4392 7617 7616 7615 3 1.78866 3.49154 0.53555 -5.81576 0.00000 0.00000
4392 7617 7616 7620 3 -1.26775 3.02085 1.74473 -3.49782 0.00000 0.00000
4397 4389 4390 4391 3 33.20422 0.00000 -33.20422 0.00000 0.00000 0.00000 ; methylguanidinium ion
4397 4389 4390 4395 3 20.50160 0.00000 -20.50160 0.00000 0.00000 0.00000 ; imides
4398 4379 4380 4381 3 33.20422 0.00000 -33.20422 0.00000 0.00000 0.00000 ; methylguanidinium ion
4398 4379 4380 4388 3 30.28798 -4.81160 -25.47638 0.00000 0.00000 0.00000 ; imides
4407 4408 4416 4417 3 30.28798 -4.81160 -25.47638 0.00000 0.00000 0.00000 ; imides
4407 4426 4427 4428 3 33.20422 0.00000 -33.20422 0.00000 0.00000 0.00000 ; methylguanidinium ion
4407 4426 4427 4432 3 20.50160 0.00000 -20.50160 0.00000 0.00000 0.00000 ; imides
4408 4407 4426 4425 3 30.28798 -4.81160 -25.47638 0.00000 0.00000 0.00000 ; imides
4408 4407 4426 4427 3 33.20422 0.00000 -33.20422 0.00000 0.00000 0.00000 ; methylguanidinium ion
4408 4416 4417 4418 3 33.20422 0.00000 -33.20422 0.00000 0.00000 0.00000 ; methylguanidinium ion
4408 4416 4417 4425 3 30.28798 -4.81160 -25.47638 0.00000 0.00000 0.00000 ; imides
4409 4408 4416 4417 3 33.20422 0.00000 -33.20422 0.00000 0.00000 0.00000 ; methylguanidinium ion
4410 4411 7237 7236 3 1.58992 4.76976 0.00000 -6.35968 0.00000 0.00000
4410 4411 7237 7238 3 1.58992 4.76976 0.00000 -6.35968 0.00000 0.00000
4410 4411 7237 7239 3 1.58992 4.76976 0.00000 -6.35968 0.00000 0.00000
4411 7237 7236 7235 3 1.78866 3.49154 0.53555 -5.81576 0.00000 0.00000
4411 7237 7236 7240 3 -1.26775 3.02085 1.74473 -3.49782 0.00000 0.00000
4416 4408 4409 4410 3 33.20422 0.00000 -33.20422 0.00000 0.00000 0.00000 ; methylguanidinium ion
4416 4408 4409 4414 3 20.50160 0.00000 -20.50160 0.00000 0.00000 0.00000 ; imides
4416 4417 4425 4426 3 30.28798 -4.81160 -25.47638 0.00000 0.00000 0.00000 ; imides
4417 4425 4426 4407 3 30.28798 -4.81160 -25.47638 0.00000 0.00000 0.00000 ; imides
4417 4425 4426 4427 3 33.20422 0.00000 -33.20422 0.00000 0.00000 0.00000 ; methylguanidinium ion
4418 4417 4425 4426 3 33.20422 0.00000 -33.20422 0.00000 0.00000 0.00000 ; methylguanidinium ion
4419 4420 8058 8057 3 1.58992 4.76976 0.00000 -6.35968 0.00000 0.00000
4419 4420 8058 8059 3 1.58992 4.76976 0.00000 -6.35968 0.00000 0.00000
4419 4420 8058 8060 3 1.58992 4.76976 0.00000 -6.35968 0.00000 0.00000
4420 8058 8057 8056 3 1.78866 3.49154 0.53555 -5.81576 0.00000 0.00000
4420 8058 8057 8061 3 -1.26775 3.02085 1.74473 -3.49782 0.00000 0.00000
4425 4417 4418 4419 3 33.20422 0.00000 -33.20422 0.00000 0.00000 0.00000 ; methylguanidinium ion
4425 4417 4418 4423 3 20.50160 0.00000 -20.50160 0.00000 0.00000 0.00000 ; imides
4426 4407 4408 4409 3 33.20422 0.00000 -33.20422 0.00000 0.00000 0.00000 ; methylguanidinium ion
4426 4407 4408 4416 3 30.28798 -4.81160 -25.47638 0.00000 0.00000 0.00000 ; imides
4428 4429 5613 5612 3 1.58992 4.76976 0.00000 -6.35968 0.00000 0.00000
4428 4429 5613 5614 3 1.58992 4.76976 0.00000 -6.35968 0.00000 0.00000
4428 4429 5613 5615 3 1.58992 4.76976 0.00000 -6.35968 0.00000 0.00000
4429 5613 5612 5611 3 1.78866 3.49154 0.53555 -5.81576 0.00000 0.00000
4429 5613 5612 5616 3 -1.26775 3.02085 1.74473 -3.49782 0.00000 0.00000
4434 4435 4443 4444 3 30.28798 -4.81160 -25.47638 0.00000 0.00000 0.00000 ; imides
4434 4453 4454 4455 3 33.20422 0.00000 -33.20422 0.00000 0.00000 0.00000 ; methylguanidinium ion
4434 4453 4454 4459 3 20.50160 0.00000 -20.50160 0.00000 0.00000 0.00000 ; imides
4435 4434 4453 4452 3 30.28798 -4.81160 -25.47638 0.00000 0.00000 0.00000 ; imides
4435 4434 4453 4454 3 33.20422 0.00000 -33.20422 0.00000 0.00000 0.00000 ; methylguanidinium ion
4435 4443 4444 4445 3 33.20422 0.00000 -33.20422 0.00000 0.00000 0.00000 ; methylguanidinium ion
4435 4443 4444 4452 3 30.28798 -4.81160 -25.47638 0.00000 0.00000 0.00000 ; imides
4436 4435 4443 4444 3 33.20422 0.00000 -33.20422 0.00000 0.00000 0.00000 ; methylguanidinium ion
4437 4438 8599 8598 3 1.58992 4.76976 0.00000 -6.35968 0.00000 0.00000
4437 4438 8599 8600 3 1.58992 4.76976 0.00000 -6.35968 0.00000 0.00000
4437 4438 8599 8601 3 1.58992 4.76976 0.00000 -6.35968 0.00000 0.00000
4438 8599 8598 8597 3 1.78866 3.49154 0.53555 -5.81576 0.00000 0.00000
4438 8599 8598 8602 3 -1.26775 3.02085 1.74473 -3.49782 0.00000 0.00000
4443 4435 4436 4437 3 33.20422 0.00000 -33.20422 0.00000 0.00000 0.00000 ; methylguanidinium ion
4443 4435 4436 4441 3 20.50160 0.00000 -20.50160 0.00000 0.00000 0.00000 ; imides
4443 4444 4452 4453 3 30.28798 -4.81160 -25.47638 0.00000 0.00000 0.00000 ; imides
4444 4452 4453 4434 3 30.28798 -4.81160 -25.47638 0.00000 0.00000 0.00000 ; imides
4444 4452 4453 4454 3 33.20422 0.00000 -33.20422 0.00000 0.00000 0.00000 ; methylguanidinium ion
4445 4444 4452 4453 3 33.20422 0.00000 -33.20422 0.00000 0.00000 0.00000 ; methylguanidinium ion
4446 4447 10533 10532 3 1.58992 4.76976 0.00000 -6.35968 0.00000 0.00000
4446 4447 10533 10534 3 1.58992 4.76976 0.00000 -6.35968 0.00000 0.00000
4446 4447 10533 10535 3 1.58992 4.76976 0.00000 -6.35968 0.00000 0.00000
4447 10533 10532 10531 3 1.78866 3.49154 0.53555 -5.81576 0.00000 0.00000
4447 10533 10532 10536 3 -1.26775 3.02085 1.74473 -3.49782 0.00000 0.00000
4452 4444 4445 4446 3 33.20422 0.00000 -33.20422 0.00000 0.00000 0.00000 ; methylguanidinium ion
4452 4444 4445 4450 3 20.50160 0.00000 -20.50160 0.00000 0.00000 0.00000 ; imides
4453 4434 4435 4436 3 33.20422 0.00000 -33.20422 0.00000 0.00000 0.00000 ; methylguanidinium ion
4453 4434 4435 4443 3 30.28798 -4.81160 -25.47638 0.00000 0.00000 0.00000 ; imides
4455 4456 10667 10666 3 1.58992 4.76976 0.00000 -6.35968 0.00000 0.00000
4455 4456 10667 10668 3 1.58992 4.76976 0.00000 -6.35968 0.00000 0.00000
4455 4456 10667 10669 3 1.58992 4.76976 0.00000 -6.35968 0.00000 0.00000
4456 10667 10666 10665 3 1.78866 3.49154 0.53555 -5.81576 0.00000 0.00000
4456 10667 10666 10670 3 -1.26775 3.02085 1.74473 -3.49782 0.00000 0.00000
4461 4462 4470 4471 3 30.28798 -4.81160 -25.47638 0.00000 0.00000 0.00000 ; imides
4461 4480 4481 4482 3 33.20422 0.00000 -33.20422 0.00000 0.00000 0.00000 ; methylguanidinium ion
4461 4480 4481 4486 3 20.50160 0.00000 -20.50160 0.00000 0.00000 0.00000 ; imides
4462 4461 4480 4479 3 30.28798 -4.81160 -25.47638 0.00000 0.00000 0.00000 ; imides
4462 4461 4480 4481 3 33.20422 0.00000 -33.20422 0.00000 0.00000 0.00000 ; methylguanidinium ion
4462 4470 4471 4472 3 33.20422 0.00000 -33.20422 0.00000 0.00000 0.00000 ; methylguanidinium ion
4462 4470 4471 4479 3 30.28798 -4.81160 -25.47638 0.00000 0.00000 0.00000 ; imides
4463 4462 4470 4471 3 33.20422 0.00000 -33.20422 0.00000 0.00000 0.00000 ; methylguanidinium ion
4464 4465 9561 9560 3 1.58992 4.76976 0.00000 -6.35968 0.00000 0.00000
4464 4465 9561 9562 3 1.58992 4.76976 0.00000 -6.35968 0.00000 0.00000
4464 4465 9561 9563 3 1.58992 4.76976 0.00000 -6.35968 0.00000 0.00000
4465 9561 9560 9559 3 1.78866 3.49154 0.53555 -5.81576 0.00000 0.00000
4465 9561 9560 9564 3 -1.26775 3.02085 1.74473 -3.49782 0.00000 0.00000
4470 4462 4463 4464 3 33.20422 0.00000 -33.20422 0.00000 0.00000 0.00000 ; methylguanidinium ion
4470 4462 4463 4468 3 20.50160 0.00000 -20.50160 0.00000 0.00000 0.00000 ; imides
4470 4471 4479 4480 3 30.28798 -4.81160 -25.47638 0.00000 0.00000 0.00000 ; imides
4471 4479 4480 4461 3 30.28798 -4.81160 -25.47638 0.00000 0.00000 0.00000 ; imides
4471 4479 4480 4481 3 33.20422 0.00000 -33.20422 0.00000 0.00000 0.00000 ; methylguanidinium ion
4472 4471 4479 4480 3 33.20422 0.00000 -33.20422 0.00000 0.00000 0.00000 ; methylguanidinium ion
4473 4474 7443 7442 3 1.58992 4.76976 0.00000 -6.35968 0.00000 0.00000
4473 4474 7443 7444 3 1.58992 4.76976 0.00000 -6.35968 0.00000 0.00000
4473 4474 7443 7445 3 1.58992 4.76976 0.00000 -6.35968 0.00000 0.00000
4474 7443 7442 7441 3 1.78866 3.49154 0.53555 -5.81576 0.00000 0.00000
4474 7443 7442 7446 3 -1.26775 3.02085 1.74473 -3.49782 0.00000 0.00000
4479 4471 4472 4473 3 33.20422 0.00000 -33.20422 0.00000 0.00000 0.00000 ; methylguanidinium ion
4479 4471 4472 4477 3 20.50160 0.00000 -20.50160 0.00000 0.00000 0.00000 ; imides
4480 4461 4462 4463 3 33.20422 0.00000 -33.20422 0.00000 0.00000 0.00000 ; methylguanidinium ion
4480 4461 4462 4470 3 30.28798 -4.81160 -25.47638 0.00000 0.00000 0.00000 ; imides
4482 4483 11060 11059 3 1.58992 4.76976 0.00000 -6.35968 0.00000 0.00000
4482 4483 11060 11061 3 1.58992 4.76976 0.00000 -6.35968 0.00000 0.00000
4482 4483 11060 11062 3 1.58992 4.76976 0.00000 -6.35968 0.00000 0.00000
4483 11060 11059 11058 3 1.78866 3.49154 0.53555 -5.81576 0.00000 0.00000
4483 11060 11059 11063 3 -1.26775 3.02085 1.74473 -3.49782 0.00000 0.00000
4488 4489 4496 4497 3 30.28798 -4.81160 -25.47638 0.00000 0.00000 0.00000 ; imides
4488 4506 4507 4508 3 33.20422 0.00000 -33.20422 0.00000 0.00000 0.00000 ; methylguanidinium ion
4488 4506 4507 4511 3 20.50160 0.00000 -20.50160 0.00000 0.00000 0.00000 ; imides
4489 4488 4506 4505 3 30.28798 -4.81160 -25.47638 0.00000 0.00000 0.00000 ; imides
4489 4488 4506 4507 3 33.20422 0.00000 -33.20422 0.00000 0.00000 0.00000 ; methylguanidinium ion
4489 4496 4497 4498 3 33.20422 0.00000 -33.20422 0.00000 0.00000 0.00000 ; methylguanidinium ion
4489 4496 4497 4505 3 30.28798 -4.81160 -25.47638 0.00000 0.00000 0.00000 ; imides
4490 4489 4496 4497 3 33.20422 0.00000 -33.20422 0.00000 0.00000 0.00000 ; methylguanidinium ion
4491 326 325 324 3 1.58992 4.76976 0.00000 -6.35968 0.00000 0.00000
4491 326 325 327 3 1.58992 4.76976 0.00000 -6.35968 0.00000 0.00000
4491 326 325 328 3 1.58992 4.76976 0.00000 -6.35968 0.00000 0.00000
4496 4489 4490 4491 3 33.20422 0.00000 -33.20422 0.00000 0.00000 0.00000 ; methylguanidinium ion
4496 4489 4490 4494 3 20.50160 0.00000 -20.50160 0.00000 0.00000 0.00000 ; imides
4496 4497 4505 4506 3 30.28798 -4.81160 -25.47638 0.00000 0.00000 0.00000 ; imides
4497 4505 4506 4488 3 30.28798 -4.81160 -25.47638 0.00000 0.00000 0.00000 ; imides
4497 4505 4506 4507 3 33.20422 0.00000 -33.20422 0.00000 0.00000 0.00000 ; methylguanidinium ion
4498 4497 4505 4506 3 33.20422 0.00000 -33.20422 0.00000 0.00000 0.00000 ; methylguanidinium ion
4499 4500 7890 7889 3 1.58992 4.76976 0.00000 -6.35968 0.00000 0.00000
4499 4500 7890 7891 3 1.58992 4.76976 0.00000 -6.35968 0.00000 0.00000
4499 4500 7890 7892 3 1.58992 4.76976 0.00000 -6.35968 0.00000 0.00000
4500 7890 7889 7888 3 1.78866 3.49154 0.53555 -5.81576 0.00000 0.00000
4500 7890 7889 7893 3 -1.26775 3.02085 1.74473 -3.49782 0.00000 0.00000
4505 4497 4498 4499 3 33.20422 0.00000 -33.20422 0.00000 0.00000 0.00000 ; methylguanidinium ion
4505 4497 4498 4503 3 20.50160 0.00000 -20.50160 0.00000 0.00000 0.00000 ; imides
4506 4488 4489 4490 3 33.20422 0.00000 -33.20422 0.00000 0.00000 0.00000 ; methylguanidinium ion
4506 4488 4489 4496 3 30.28798 -4.81160 -25.47638 0.00000 0.00000 0.00000 ; imides
4508 3841 3840 3839 3 1.58992 4.76976 0.00000 -6.35968 0.00000 0.00000
4508 3841 3840 3842 3 1.58992 4.76976 0.00000 -6.35968 0.00000 0.00000
4508 3841 3840 3843 3 1.58992 4.76976 0.00000 -6.35968 0.00000 0.00000
4513 4514 4522 4523 3 30.28798 -4.81160 -25.47638 0.00000 0.00000 0.00000 ; imides
4513 4531 4532 4533 3 33.20422 0.00000 -33.20422 0.00000 0.00000 0.00000 ; methylguanidinium ion
4513 4531 4532 4537 3 20.50160 0.00000 -20.50160 0.00000 0.00000 0.00000 ; imides
4514 4513 4531 4530 3 30.28798 -4.81160 -25.47638 0.00000 0.00000 0.00000 ; imides
4514 4513 4531 4532 3 33.20422 0.00000 -33.20422 0.00000 0.00000 0.00000 ; methylguanidinium ion
4514 4522 4523 4524 3 33.20422 0.00000 -33.20422 0.00000 0.00000 0.00000 ; methylguanidinium ion
4514 4522 4523 4530 3 30.28798 -4.81160 -25.47638 0.00000 0.00000 0.00000 ; imides
4515 4514 4522 4523 3 33.20422 0.00000 -33.20422 0.00000 0.00000 0.00000 ; methylguanidinium ion
4516 4517 9501 9500 3 1.58992 4.76976 0.00000 -6.35968 0.00000 0.00000
4516 4517 9501 9502 3 1.58992 4.76976 0.00000 -6.35968 0.00000 0.00000
4516 4517 9501 9503 3 1.58992 4.76976 0.00000 -6.35968 0.00000 0.00000
4517 9501 9500 9499 3 1.78866 3.49154 0.53555 -5.81576 0.00000 0.00000
4517 9501 9500 9504 3 -1.26775 3.02085 1.74473 -3.49782 0.00000 0.00000
4522 4514 4515 4516 3 33.20422 0.00000 -33.20422 0.00000 0.00000 0.00000 ; methylguanidinium ion
4522 4514 4515 4520 3 20.50160 0.00000 -20.50160 0.00000 0.00000 0.00000 ; imides
4522 4523 4530 4531 3 30.28798 -4.81160 -25.47638 0.00000 0.00000 0.00000 ; imides
4523 4530 4531 4513 3 30.28798 -4.81160 -25.47638 0.00000 0.00000 0.00000 ; imides
4523 4530 4531 4532 3 33.20422 0.00000 -33.20422 0.00000 0.00000 0.00000 ; methylguanidinium ion
4524 4523 4530 4531 3 33.20422 0.00000 -33.20422 0.00000 0.00000 0.00000 ; methylguanidinium ion
4525 581 580 579 3 1.58992 4.76976 0.00000 -6.35968 0.00000 0.00000
4525 581 580 582 3 1.58992 4.76976 0.00000 -6.35968 0.00000 0.00000
4525 581 580 583 3 1.58992 4.76976 0.00000 -6.35968 0.00000 0.00000
4530 4523 4524 4525 3 33.20422 0.00000 -33.20422 0.00000 0.00000 0.00000 ; methylguanidinium ion
4530 4523 4524 4528 3 20.50160 0.00000 -20.50160 0.00000 0.00000 0.00000 ; imides
4531 4513 4514 4515 3 33.20422 0.00000 -33.20422 0.00000 0.00000 0.00000 ; methylguanidinium ion
4531 4513 4514 4522 3 30.28798 -4.81160 -25.47638 0.00000 0.00000 0.00000 ; imides
4533 4534 10978 10977 3 1.58992 4.76976 0.00000 -6.35968 0.00000 0.00000
4533 4534 10978 10979 3 1.58992 4.76976 0.00000 -6.35968 0.00000 0.00000
4533 4534 10978 10980 3 1.58992 4.76976 0.00000 -6.35968 0.00000 0.00000
4534 10978 10977 10976 3 1.78866 3.49154 0.53555 -5.81576 0.00000 0.00000
4534 10978 10977 10981 3 -1.26775 3.02085 1.74473 -3.49782 0.00000 0.00000
4539 4540 4547 4548 3 30.28798 -4.81160 -25.47638 0.00000 0.00000 0.00000 ; imides
4539 4556 4557 4558 3 33.20422 0.00000 -33.20422 0.00000 0.00000 0.00000 ; methylguanidinium ion
4539 4556 4557 4562 3 20.50160 0.00000 -20.50160 0.00000 0.00000 0.00000 ; imides
4540 4539 4556 4555 3 30.28798 -4.81160 -25.47638 0.00000 0.00000 0.00000 ; imides
4540 4539 4556 4557 3 33.20422 0.00000 -33.20422 0.00000 0.00000 0.00000 ; methylguanidinium ion
4540 4547 4548 4549 3 33.20422 0.00000 -33.20422 0.00000 0.00000 0.00000 ; methylguanidinium ion
4540 4547 4548 4555 3 30.28798 -4.81160 -25.47638 0.00000 0.00000 0.00000 ; imides
4541 4540 4547 4548 3 33.20422 0.00000 -33.20422 0.00000 0.00000 0.00000 ; methylguanidinium ion
4542 2739 2738 2737 3 1.58992 4.76976 0.00000 -6.35968 0.00000 0.00000
4542 2739 2738 2740 3 1.58992 4.76976 0.00000 -6.35968 0.00000 0.00000
4542 2739 2738 2741 3 1.58992 4.76976 0.00000 -6.35968 0.00000 0.00000
4547 4540 4541 4542 3 33.20422 0.00000 -33.20422 0.00000 0.00000 0.00000 ; methylguanidinium ion
4547 4540 4541 4545 3 20.50160 0.00000 -20.50160 0.00000 0.00000 0.00000 ; imides
4547 4548 4555 4556 3 30.28798 -4.81160 -25.47638 0.00000 0.00000 0.00000 ; imides
4548 4555 4556 4539 3 30.28798 -4.81160 -25.47638 0.00000 0.00000 0.00000 ; imides
4548 4555 4556 4557 3 33.20422 0.00000 -33.20422 0.00000 0.00000 0.00000 ; methylguanidinium ion
4549 4548 4555 4556 3 33.20422 0.00000 -33.20422 0.00000 0.00000 0.00000 ; methylguanidinium ion
4550 2837 2836 2835 3 1.58992 4.76976 0.00000 -6.35968 0.00000 0.00000
4550 2837 2836 2838 3 1.58992 4.76976 0.00000 -6.35968 0.00000 0.00000
4550 2837 2836 2839 3 1.58992 4.76976 0.00000 -6.35968 0.00000 0.00000
4555 4548 4549 4550 3 33.20422 0.00000 -33.20422 0.00000 0.00000 0.00000 ; methylguanidinium ion
4555 4548 4549 4553 3 20.50160 0.00000 -20.50160 0.00000 0.00000 0.00000 ; imides
4556 4539 4540 4541 3 33.20422 0.00000 -33.20422 0.00000 0.00000 0.00000 ; methylguanidinium ion
4556 4539 4540 4547 3 30.28798 -4.81160 -25.47638 0.00000 0.00000 0.00000 ; imides
4558 4559 10500 10499 3 1.58992 4.76976 0.00000 -6.35968 0.00000 0.00000
4558 4559 10500 10501 3 1.58992 4.76976 0.00000 -6.35968 0.00000 0.00000
4558 4559 10500 10502 3 1.58992 4.76976 0.00000 -6.35968 0.00000 0.00000
4559 10500 10499 10498 3 1.78866 3.49154 0.53555 -5.81576 0.00000 0.00000
4559 10500 10499 10503 3 -1.26775 3.02085 1.74473 -3.49782 0.00000 0.00000
4564 4565 4573 4574 3 30.28798 -4.81160 -25.47638 0.00000 0.00000 0.00000 ; imides
4564 4582 4583 4584 3 33.20422 0.00000 -33.20422 0.00000 0.00000 0.00000 ; methylguanidinium ion
4564 4582 4583 4588 3 20.50160 0.00000 -20.50160 0.00000 0.00000 0.00000 ; imides
4565 4564 4582 4581 3 30.28798 -4.81160 -25.47638 0.00000 0.00000 0.00000 ; imides
4565 4564 4582 4583 3 33.20422 0.00000 -33.20422 0.00000 0.00000 0.00000 ; methylguanidinium ion
4565 4573 4574 4575 3 33.20422 0.00000 -33.20422 0.00000 0.00000 0.00000 ; methylguanidinium ion
4565 4573 4574 4581 3 30.28798 -4.81160 -25.47638 0.00000 0.00000 0.00000 ; imides
4566 4565 4573 4574 3 33.20422 0.00000 -33.20422 0.00000 0.00000 0.00000 ; methylguanidinium ion
4567 4568 4972 4971 3 1.58992 4.76976 0.00000 -6.35968 0.00000 0.00000
4567 4568 4972 4973 3 1.58992 4.76976 0.00000 -6.35968 0.00000 0.00000
4567 4568 4972 4974 3 1.58992 4.76976 0.00000 -6.35968 0.00000 0.00000
4568 4972 4971 4970 3 1.78866 3.49154 0.53555 -5.81576 0.00000 0.00000
4568 4972 4971 4975 3 -1.26775 3.02085 1.74473 -3.49782 0.00000 0.00000
4573 4565 4566 4567 3 33.20422 0.00000 -33.20422 0.00000 0.00000 0.00000 ; methylguanidinium ion
4573 4565 4566 4571 3 20.50160 0.00000 -20.50160 0.00000 0.00000 0.00000 ; imides
4573 4574 4581 4582 3 30.28798 -4.81160 -25.47638 0.00000 0.00000 0.00000 ; imides
4574 4581 4582 4564 3 30.28798 -4.81160 -25.47638 0.00000 0.00000 0.00000 ; imides
4574 4581 4582 4583 3 33.20422 0.00000 -33.20422 0.00000 0.00000 0.00000 ; methylguanidinium ion
4575 4574 4581 4582 3 33.20422 0.00000 -33.20422 0.00000 0.00000 0.00000 ; methylguanidinium ion
4576 1773 1772 1771 3 1.58992 4.76976 0.00000 -6.35968 0.00000 0.00000
4576 1773 1772 1774 3 1.58992 4.76976 0.00000 -6.35968 0.00000 0.00000
4576 1773 1772 1775 3 1.58992 4.76976 0.00000 -6.35968 0.00000 0.00000
4581 4574 4575 4576 3 33.20422 0.00000 -33.20422 0.00000 0.00000 0.00000 ; methylguanidinium ion
4581 4574 4575 4579 3 20.50160 0.00000 -20.50160 0.00000 0.00000 0.00000 ; imides
4582 4564 4565 4566 3 33.20422 0.00000 -33.20422 0.00000 0.00000 0.00000 ; methylguanidinium ion
4582 4564 4565 4573 3 30.28798 -4.81160 -25.47638 0.00000 0.00000 0.00000 ; imides
4584 4585 6414 6413 3 1.58992 4.76976 0.00000 -6.35968 0.00000 0.00000
4584 4585 6414 6415 3 1.58992 4.76976 0.00000 -6.35968 0.00000 0.00000
4584 4585 6414 6416 3 1.58992 4.76976 0.00000 -6.35968 0.00000 0.00000
4585 6414 6413 6412 3 1.78866 3.49154 0.53555 -5.81576 0.00000 0.00000
4585 6414 6413 6417 3 -1.26775 3.02085 1.74473 -3.49782 0.00000 0.00000
4590 4591 4599 4600 3 30.28798 -4.81160 -25.47638 0.00000 0.00000 0.00000 ; imides
4590 4609 4610 4611 3 33.20422 0.00000 -33.20422 0.00000 0.00000 0.00000 ; methylguanidinium ion
4590 4609 4610 4614 3 20.50160 0.00000 -20.50160 0.00000 0.00000 0.00000 ; imides
4591 4590 4609 4608 3 30.28798 -4.81160 -25.47638 0.00000 0.00000 0.00000 ; imides
4591 4590 4609 4610 3 33.20422 0.00000 -33.20422 0.00000 0.00000 0.00000 ; methylguanidinium ion
4591 4599 4600 4601 3 33.20422 0.00000 -33.20422 0.00000 0.00000 0.00000 ; methylguanidinium ion
4591 4599 4600 4608 3 30.28798 -4.81160 -25.47638 0.00000 0.00000 0.00000 ; imides
4592 4591 4599 4600 3 33.20422 0.00000 -33.20422 0.00000 0.00000 0.00000 ; methylguanidinium ion
4593 4594 12788 12787 3 1.58992 4.76976 0.00000 -6.35968 0.00000 0.00000
4593 4594 12788 12789 3 1.58992 4.76976 0.00000 -6.35968 0.00000 0.00000
4593 4594 12788 12790 3 1.58992 4.76976 0.00000 -6.35968 0.00000 0.00000
4594 12788 12787 12786 3 1.78866 3.49154 0.53555 -5.81576 0.00000 0.00000
4594 12788 12787 12791 3 -1.26775 3.02085 1.74473 -3.49782 0.00000 0.00000
4599 4591 4592 4593 3 33.20422 0.00000 -33.20422 0.00000 0.00000 0.00000 ; methylguanidinium ion
4599 4591 4592 4597 3 20.50160 0.00000 -20.50160 0.00000 0.00000 0.00000 ; imides
4599 4600 4608 4609 3 30.28798 -4.81160 -25.47638 0.00000 0.00000 0.00000 ; imides
4600 4608 4609 4590 3 30.28798 -4.81160 -25.47638 0.00000 0.00000 0.00000 ; imides
4600 4608 4609 4610 3 33.20422 0.00000 -33.20422 0.00000 0.00000 0.00000 ; methylguanidinium ion
4601 4600 4608 4609 3 33.20422 0.00000 -33.20422 0.00000 0.00000 0.00000 ; methylguanidinium ion
4602 4603 11449 11448 3 1.58992 4.76976 0.00000 -6.35968 0.00000 0.00000
4602 4603 11449 11450 3 1.58992 4.76976 0.00000 -6.35968 0.00000 0.00000
4602 4603 11449 11451 3 1.58992 4.76976 0.00000 -6.35968 0.00000 0.00000
4603 11449 11448 11447 3 1.78866 3.49154 0.53555 -5.81576 0.00000 0.00000
4603 11449 11448 11452 3 -1.26775 3.02085 1.74473 -3.49782 0.00000 0.00000
4608 4600 4601 4602 3 33.20422 0.00000 -33.20422 0.00000 0.00000 0.00000 ; methylguanidinium ion
4608 4600 4601 4606 3 20.50160 0.00000 -20.50160 0.00000 0.00000 0.00000 ; imides
4609 4590 4591 4592 3 33.20422 0.00000 -33.20422 0.00000 0.00000 0.00000 ; methylguanidinium ion
4609 4590 4591 4599 3 30.28798 -4.81160 -25.47638 0.00000 0.00000 0.00000 ; imides
4611 4271 4270 4269 3 1.58992 4.76976 0.00000 -6.35968 0.00000 0.00000
4611 4271 4270 4272 3 1.58992 4.76976 0.00000 -6.35968 0.00000 0.00000
4611 4271 4270 4273 3 1.58992 4.76976 0.00000 -6.35968 0.00000 0.00000
4616 4617 4625 4626 3 30.28798 -4.81160 -25.47638 0.00000 0.00000 0.00000 ; imides
4616 4636 4637 4638 3 33.20422 0.00000 -33.20422 0.00000 0.00000 0.00000 ; methylguanidinium ion
4616 4636 4637 4642 3 20.50160 0.00000 -20.50160 0.00000 0.00000 0.00000 ; imides
4617 4616 4636 4635 3 30.28798 -4.81160 -25.47638 0.00000 0.00000 0.00000 ; imides
4617 4616 4636 4637 3 33.20422 0.00000 -33.20422 0.00000 0.00000 0.00000 ; methylguanidinium ion
4617 4625 4626 4627 3 33.20422 0.00000 -33.20422 0.00000 0.00000 0.00000 ; methylguanidinium ion
4617 4625 4626 4635 3 30.28798 -4.81160 -25.47638 0.00000 0.00000 0.00000 ; imides
4618 4617 4625 4626 3 33.20422 0.00000 -33.20422 0.00000 0.00000 0.00000 ; methylguanidinium ion
4619 4620 10135 10134 3 1.58992 4.76976 0.00000 -6.35968 0.00000 0.00000
4619 4620 10135 10136 3 1.58992 4.76976 0.00000 -6.35968 0.00000 0.00000
4619 4620 10135 10137 3 1.58992 4.76976 0.00000 -6.35968 0.00000 0.00000
4620 10135 10134 10133 3 1.78866 3.49154 0.53555 -5.81576 0.00000 0.00000
4620 10135 10134 10138 3 -1.26775 3.02085 1.74473 -3.49782 0.00000 0.00000
4625 4617 4618 4619 3 33.20422 0.00000 -33.20422 0.00000 0.00000 0.00000 ; methylguanidinium ion
4625 4617 4618 4623 3 20.50160 0.00000 -20.50160 0.00000 0.00000 0.00000 ; imides
4625 4626 4635 4636 3 30.28798 -4.81160 -25.47638 0.00000 0.00000 0.00000 ; imides
4626 4635 4636 4616 3 30.28798 -4.81160 -25.47638 0.00000 0.00000 0.00000 ; imides
4626 4635 4636 4637 3 33.20422 0.00000 -33.20422 0.00000 0.00000 0.00000 ; methylguanidinium ion
4627 4626 4635 4636 3 33.20422 0.00000 -33.20422 0.00000 0.00000 0.00000 ; methylguanidinium ion
4635 4626 4627 4628 3 33.20422 0.00000 -33.20422 0.00000 0.00000 0.00000 ; methylguanidinium ion
4635 4626 4627 4633 3 20.50160 0.00000 -20.50160 0.00000 0.00000 0.00000 ; imides
4636 4616 4617 4618 3 33.20422 0.00000 -33.20422 0.00000 0.00000 0.00000 ; methylguanidinium ion
4636 4616 4617 4625 3 30.28798 -4.81160 -25.47638 0.00000 0.00000 0.00000 ; imides
4638 4639 9168 9167 3 1.58992 4.76976 0.00000 -6.35968 0.00000 0.00000
4638 4639 9168 9169 3 1.58992 4.76976 0.00000 -6.35968 0.00000 0.00000
4638 4639 9168 9170 3 1.58992 4.76976 0.00000 -6.35968 0.00000 0.00000
4639 9168 9167 9166 3 1.78866 3.49154 0.53555 -5.81576 0.00000 0.00000
4639 9168 9167 9171 3 -1.26775 3.02085 1.74473 -3.49782 0.00000 0.00000
4644 4645 4653 4654 3 30.28798 -4.81160 -25.47638 0.00000 0.00000 0.00000 ; imides
4644 4663 4664 4665 3 33.20422 0.00000 -33.20422 0.00000 0.00000 0.00000 ; methylguanidinium ion
4644 4663 4664 4669 3 20.50160 0.00000 -20.50160 0.00000 0.00000 0.00000 ; imides
4645 4644 4663 4662 3 30.28798 -4.81160 -25.47638 0.00000 0.00000 0.00000 ; imides
4645 4644 4663 4664 3 33.20422 0.00000 -33.20422 0.00000 0.00000 0.00000 ; methylguanidinium ion
4645 4653 4654 4655 3 33.20422 0.00000 -33.20422 0.00000 0.00000 0.00000 ; methylguanidinium ion
4645 4653 4654 4662 3 30.28798 -4.81160 -25.47638 0.00000 0.00000 0.00000 ; imides
4646 4645 4653 4654 3 33.20422 0.00000 -33.20422 0.00000 0.00000 0.00000 ; methylguanidinium ion
4647 4648 10768 10767 3 1.58992 4.76976 0.00000 -6.35968 0.00000 0.00000
4647 4648 10768 10769 3 1.58992 4.76976 0.00000 -6.35968 0.00000 0.00000
4647 4648 10768 10770 3 1.58992 4.76976 0.00000 -6.35968 0.00000 0.00000
4648 10768 10767 10766 3 1.78866 3.49154 0.53555 -5.81576 0.00000 0.00000
4648 10768 10767 10771 3 -1.26775 3.02085 1.74473 -3.49782 0.00000 0.00000
4653 4645 4646 4647 3 33.20422 0.00000 -33.20422 0.00000 0.00000 0.00000 ; methylguanidinium ion
4653 4645 4646 4651 3 20.50160 0.00000 -20.50160 0.00000 0.00000 0.00000 ; imides
4653 4654 4662 4663 3 30.28798 -4.81160 -25.47638 0.00000 0.00000 0.00000 ; imides
4654 4662 4663 4644 3 30.28798 -4.81160 -25.47638 0.00000 0.00000 0.00000 ; imides
4654 4662 4663 4664 3 33.20422 0.00000 -33.20422 0.00000 0.00000 0.00000 ; methylguanidinium ion
4655 4654 4662 4663 3 33.20422 0.00000 -33.20422 0.00000 0.00000 0.00000 ; methylguanidinium ion
4656 4657 5354 5353 3 1.58992 4.76976 0.00000 -6.35968 0.00000 0.00000
4656 4657 5354 5355 3 1.58992 4.76976 0.00000 -6.35968 0.00000 0.00000
4656 4657 5354 5356 3 1.58992 4.76976 0.00000 -6.35968 0.00000 0.00000
4657 5354 5353 5352 3 1.78866 3.49154 0.53555 -5.81576 0.00000 0.00000
4657 5354 5353 5357 3 -1.26775 3.02085 1.74473 -3.49782 0.00000 0.00000
4662 4654 4655 4656 3 33.20422 0.00000 -33.20422 0.00000 0.00000 0.00000 ; methylguanidinium ion
4662 4654 4655 4660 3 20.50160 0.00000 -20.50160 0.00000 0.00000 0.00000 ; imides
4663 4644 4645 4646 3 33.20422 0.00000 -33.20422 0.00000 0.00000 0.00000 ; methylguanidinium ion
4663 4644 4645 4653 3 30.28798 -4.81160 -25.47638 0.00000 0.00000 0.00000 ; imides
4665 4666 10492 10491 3 1.58992 4.76976 0.00000 -6.35968 0.00000 0.00000
4665 4666 10492 10493 3 1.58992 4.76976 0.00000 -6.35968 0.00000 0.00000
4665 4666 10492 10494 3 1.58992 4.76976 0.00000 -6.35968 0.00000 0.00000
4666 10492 10491 10490 3 1.78866 3.49154 0.53555 -5.81576 0.00000 0.00000
4666 10492 10491 10495 3 -1.26775 3.02085 1.74473 -3.49782 0.00000 0.00000
4671 4672 4680 4681 3 30.28798 -4.81160 -25.47638 0.00000 0.00000 0.00000 ; imides
4671 4690 4691 4692 3 33.20422 0.00000 -33.20422 0.00000 0.00000 0.00000 ; methylguanidinium ion
4671 4690 4691 4695 3 20.50160 0.00000 -20.50160 0.00000 0.00000 0.00000 ; imides
4672 4671 4690 4689 3 30.28798 -4.81160 -25.47638 0.00000 0.00000 0.00000 ; imides
4672 4671 4690 4691 3 33.20422 0.00000 -33.20422 0.00000 0.00000 0.00000 ; methylguanidinium ion
4672 4680 4681 4682 3 33.20422 0.00000 -33.20422 0.00000 0.00000 0.00000 ; methylguanidinium ion
4672 4680 4681 4689 3 30.28798 -4.81160 -25.47638 0.00000 0.00000 0.00000 ; imides
4673 4672 4680 4681 3 33.20422 0.00000 -33.20422 0.00000 0.00000 0.00000 ; methylguanidinium ion
4674 4675 11543 11542 3 1.58992 4.76976 0.00000 -6.35968 0.00000 0.00000
4674 4675 11543 11544 3 1.58992 4.76976 0.00000 -6.35968 0.00000 0.00000
4674 4675 11543 11545 3 1.58992 4.76976 0.00000 -6.35968 0.00000 0.00000
4675 11543 11542 11541 3 1.78866 3.49154 0.53555 -5.81576 0.00000 0.00000
4675 11543 11542 11546 3 -1.26775 3.02085 1.74473 -3.49782 0.00000 0.00000
4680 4672 4673 4674 3 33.20422 0.00000 -33.20422 0.00000 0.00000 0.00000 ; methylguanidinium ion
4680 4672 4673 4678 3 20.50160 0.00000 -20.50160 0.00000 0.00000 0.00000 ; imides
4680 4681 4689 4690 3 30.28798 -4.81160 -25.47638 0.00000 0.00000 0.00000 ; imides
4681 4689 4690 4671 3 30.28798 -4.81160 -25.47638 0.00000 0.00000 0.00000 ; imides
4681 4689 4690 4691 3 33.20422 0.00000 -33.20422 0.00000 0.00000 0.00000 ; methylguanidinium ion
4682 4681 4689 4690 3 33.20422 0.00000 -33.20422 0.00000 0.00000 0.00000 ; methylguanidinium ion
4683 4684 10593 10592 3 1.58992 4.76976 0.00000 -6.35968 0.00000 0.00000
4683 4684 10593 10594 3 1.58992 4.76976 0.00000 -6.35968 0.00000 0.00000
4683 4684 10593 10595 3 1.58992 4.76976 0.00000 -6.35968 0.00000 0.00000
4684 10593 10592 10591 3 1.78866 3.49154 0.53555 -5.81576 0.00000 0.00000
4684 10593 10592 10596 3 -1.26775 3.02085 1.74473 -3.49782 0.00000 0.00000
4689 4681 4682 4683 3 33.20422 0.00000 -33.20422 0.00000 0.00000 0.00000 ; methylguanidinium ion
4689 4681 4682 4687 3 20.50160 0.00000 -20.50160 0.00000 0.00000 0.00000 ; imides
4690 4671 4672 4673 3 33.20422 0.00000 -33.20422 0.00000 0.00000 0.00000 ; methylguanidinium ion
4690 4671 4672 4680 3 30.28798 -4.81160 -25.47638 0.00000 0.00000 0.00000 ; imides
4692 3326 3325 3324 3 1.58992 4.76976 0.00000 -6.35968 0.00000 0.00000
4692 3326 3325 3327 3 1.58992 4.76976 0.00000 -6.35968 0.00000 0.00000
4692 3326 3325 3328 3 1.58992 4.76976 0.00000 -6.35968 0.00000 0.00000
4697 4698 4706 4707 3 30.28798 -4.81160 -25.47638 0.00000 0.00000 0.00000 ; imides
4697 4715 4716 4717 3 33.20422 0.00000 -33.20422 0.00000 0.00000 0.00000 ; methylguanidinium ion
4697 4715 4716 4721 3 20.50160 0.00000 -20.50160 0.00000 0.00000 0.00000 ; imides
4698 4697 4715 4714 3 30.28798 -4.81160 -25.47638 0.00000 0.00000 0.00000 ; imides
4698 4697 4715 4716 3 33.20422 0.00000 -33.20422 0.00000 0.00000 0.00000 ; methylguanidinium ion
4698 4706 4707 4708 3 33.20422 0.00000 -33.20422 0.00000 0.00000 0.00000 ; methylguanidinium ion
4698 4706 4707 4714 3 30.28798 -4.81160 -25.47638 0.00000 0.00000 0.00000 ; imides
4699 4698 4706 4707 3 33.20422 0.00000 -33.20422 0.00000 0.00000 0.00000 ; methylguanidinium ion
4700 4701 11352 11351 3 1.58992 4.76976 0.00000 -6.35968 0.00000 0.00000
4700 4701 11352 11353 3 1.58992 4.76976 0.00000 -6.35968 0.00000 0.00000
4700 4701 11352 11354 3 1.58992 4.76976 0.00000 -6.35968 0.00000 0.00000
4701 11352 11351 11350 3 1.78866 3.49154 0.53555 -5.81576 0.00000 0.00000
4701 11352 11351 11355 3 -1.26775 3.02085 1.74473 -3.49782 0.00000 0.00000
4706 4698 4699 4700 3 33.20422 0.00000 -33.20422 0.00000 0.00000 0.00000 ; methylguanidinium ion
4706 4698 4699 4704 3 20.50160 0.00000 -20.50160 0.00000 0.00000 0.00000 ; imides
4706 4707 4714 4715 3 30.28798 -4.81160 -25.47638 0.00000 0.00000 0.00000 ; imides
4707 4714 4715 4697 3 30.28798 -4.81160 -25.47638 0.00000 0.00000 0.00000 ; imides
4707 4714 4715 4716 3 33.20422 0.00000 -33.20422 0.00000 0.00000 0.00000 ; methylguanidinium ion
4708 4707 4714 4715 3 33.20422 0.00000 -33.20422 0.00000 0.00000 0.00000 ; methylguanidinium ion
4709 844 843 842 3 1.58992 4.76976 0.00000 -6.35968 0.00000 0.00000
4709 844 843 845 3 1.58992 4.76976 0.00000 -6.35968 0.00000 0.00000
4709 844 843 846 3 1.58992 4.76976 0.00000 -6.35968 0.00000 0.00000
4714 4707 4708 4709 3 33.20422 0.00000 -33.20422 0.00000 0.00000 0.00000 ; methylguanidinium ion
4714 4707 4708 4712 3 20.50160 0.00000 -20.50160 0.00000 0.00000 0.00000 ; imides
4715 4697 4698 4699 3 33.20422 0.00000 -33.20422 0.00000 0.00000 0.00000 ; methylguanidinium ion
4715 4697 4698 4706 3 30.28798 -4.81160 -25.47638 0.00000 0.00000 0.00000 ; imides
4717 4718 4842 4841 3 1.58992 4.76976 0.00000 -6.35968 0.00000 0.00000
4717 4718 4842 4843 3 1.58992 4.76976 0.00000 -6.35968 0.00000 0.00000
4717 4718 4842 4844 3 1.58992 4.76976 0.00000 -6.35968 0.00000 0.00000
4718 4842 4841 4840 3 1.78866 3.49154 0.53555 -5.81576 0.00000 0.00000
4718 4842 4841 4845 3 -1.26775 3.02085 1.74473 -3.49782 0.00000 0.00000
4723 4724 4732 4733 3 30.28798 -4.81160 -25.47638 0.00000 0.00000 0.00000 ; imides
4723 4742 4743 4744 3 33.20422 0.00000 -33.20422 0.00000 0.00000 0.00000 ; methylguanidinium ion
4723 4742 4743 4749 3 20.50160 0.00000 -20.50160 0.00000 0.00000 0.00000 ; imides
4724 4723 4742 4741 3 30.28798 -4.81160 -25.47638 0.00000 0.00000 0.00000 ; imides
4724 4723 4742 4743 3 33.20422 0.00000 -33.20422 0.00000 0.00000 0.00000 ; methylguanidinium ion
4724 4732 4733 4734 3 33.20422 0.00000 -33.20422 0.00000 0.00000 0.00000 ; methylguanidinium ion
4724 4732 4733 4741 3 30.28798 -4.81160 -25.47638 0.00000 0.00000 0.00000 ; imides
4725 4724 4732 4733 3 33.20422 0.00000 -33.20422 0.00000 0.00000 0.00000 ; methylguanidinium ion
4726 4727 8591 8590 3 1.58992 4.76976 0.00000 -6.35968 0.00000 0.00000
4726 4727 8591 8592 3 1.58992 4.76976 0.00000 -6.35968 0.00000 0.00000
4726 4727 8591 8593 3 1.58992 4.76976 0.00000 -6.35968 0.00000 0.00000
4727 8591 8590 8589 3 1.78866 3.49154 0.53555 -5.81576 0.00000 0.00000
4727 8591 8590 8594 3 -1.26775 3.02085 1.74473 -3.49782 0.00000 0.00000
4732 4724 4725 4726 3 33.20422 0.00000 -33.20422 0.00000 0.00000 0.00000 ; methylguanidinium ion
4732 4724 4725 4730 3 20.50160 0.00000 -20.50160 0.00000 0.00000 0.00000 ; imides
4732 4733 4741 4742 3 30.28798 -4.81160 -25.47638 0.00000 0.00000 0.00000 ; imides
4733 4741 4742 4723 3 30.28798 -4.81160 -25.47638 0.00000 0.00000 0.00000 ; imides
4733 4741 4742 4743 3 33.20422 0.00000 -33.20422 0.00000 0.00000 0.00000 ; methylguanidinium ion
4734 4733 4741 4742 3 33.20422 0.00000 -33.20422 0.00000 0.00000 0.00000 ; methylguanidinium ion
4735 4736 7117 7116 3 1.58992 4.76976 0.00000 -6.35968 0.00000 0.00000
4735 4736 7117 7118 3 1.58992 4.76976 0.00000 -6.35968 0.00000 0.00000
4735 4736 7117 7119 3 1.58992 4.76976 0.00000 -6.35968 0.00000 0.00000
4736 7117 7116 7115 3 1.78866 3.49154 0.53555 -5.81576 0.00000 0.00000
4736 7117 7116 7120 3 -1.26775 3.02085 1.74473 -3.49782 0.00000 0.00000
4741 4733 4734 4735 3 33.20422 0.00000 -33.20422 0.00000 0.00000 0.00000 ; methylguanidinium ion
4741 4733 4734 4739 3 20.50160 0.00000 -20.50160 0.00000 0.00000 0.00000 ; imides
4742 4723 4724 4725 3 33.20422 0.00000 -33.20422 0.00000 0.00000 0.00000 ; methylguanidinium ion
4742 4723 4724 4732 3 30.28798 -4.81160 -25.47638 0.00000 0.00000 0.00000 ; imides
4751 4752 4760 4761 3 30.28798 -4.81160 -25.47638 0.00000 0.00000 0.00000 ; imides
4751 4770 4771 4772 3 33.20422 0.00000 -33.20422 0.00000 0.00000 0.00000 ; methylguanidinium ion
4751 4770 4771 4776 3 20.50160 0.00000 -20.50160 0.00000 0.00000 0.00000 ; imides
4752 4751 4770 4769 3 30.28798 -4.81160 -25.47638 0.00000 0.00000 0.00000 ; imides
4752 4751 4770 4771 3 33.20422 0.00000 -33.20422 0.00000 0.00000 0.00000 ; methylguanidinium ion
4752 4760 4761 4762 3 33.20422 0.00000 -33.20422 0.00000 0.00000 0.00000 ; methylguanidinium ion
4752 4760 4761 4769 3 30.28798 -4.81160 -25.47638 0.00000 0.00000 0.00000 ; imides
4753 4752 4760 4761 3 33.20422 0.00000 -33.20422 0.00000 0.00000 0.00000 ; methylguanidinium ion
4754 4755 5311 5310 3 1.58992 4.76976 0.00000 -6.35968 0.00000 0.00000
4754 4755 5311 5312 3 1.58992 4.76976 0.00000 -6.35968 0.00000 0.00000
4754 4755 5311 5313 3 1.58992 4.76976 0.00000 -6.35968 0.00000 0.00000
4755 5311 5310 5309 3 1.78866 3.49154 0.53555 -5.81576 0.00000 0.00000
4755 5311 5310 5314 3 -1.26775 3.02085 1.74473 -3.49782 0.00000 0.00000
4760 4752 4753 4754 3 33.20422 0.00000 -33.20422 0.00000 0.00000 0.00000 ; methylguanidinium ion
4760 4752 4753 4758 3 20.50160 0.00000 -20.50160 0.00000 0.00000 0.00000 ; imides
4760 4761 4769 4770 3 30.28798 -4.81160 -25.47638 0.00000 0.00000 0.00000 ; imides
4761 4769 4770 4751 3 30.28798 -4.81160 -25.47638 0.00000 0.00000 0.00000 ; imides
4761 4769 4770 4771 3 33.20422 0.00000 -33.20422 0.00000 0.00000 0.00000 ; methylguanidinium ion
4762 4761 4769 4770 3 33.20422 0.00000 -33.20422 0.00000 0.00000 0.00000 ; methylguanidinium ion
4763 4764 5061 5060 3 1.58992 4.76976 0.00000 -6.35968 0.00000 0.00000
4763 4764 5061 5062 3 1.58992 4.76976 0.00000 -6.35968 0.00000 0.00000
4763 4764 5061 5063 3 1.58992 4.76976 0.00000 -6.35968 0.00000 0.00000
4764 5061 5060 5059 3 1.78866 3.49154 0.53555 -5.81576 0.00000 0.00000
4764 5061 5060 5064 3 -1.26775 3.02085 1.74473 -3.49782 0.00000 0.00000
4769 4761 4762 4763 3 33.20422 0.00000 -33.20422 0.00000 0.00000 0.00000 ; methylguanidinium ion
4769 4761 4762 4767 3 20.50160 0.00000 -20.50160 0.00000 0.00000 0.00000 ; imides
4770 4751 4752 4753 3 33.20422 0.00000 -33.20422 0.00000 0.00000 0.00000 ; methylguanidinium ion
4770 4751 4752 4760 3 30.28798 -4.81160 -25.47638 0.00000 0.00000 0.00000 ; imides
4772 4773 7142 7141 3 1.58992 4.76976 0.00000 -6.35968 0.00000 0.00000
4772 4773 7142 7143 3 1.58992 4.76976 0.00000 -6.35968 0.00000 0.00000
4772 4773 7142 7144 3 1.58992 4.76976 0.00000 -6.35968 0.00000 0.00000
4773 7142 7141 7140 3 1.78866 3.49154 0.53555 -5.81576 0.00000 0.00000
4773 7142 7141 7145 3 -1.26775 3.02085 1.74473 -3.49782 0.00000 0.00000
4778 4779 4787 4788 3 30.28798 -4.81160 -25.47638 0.00000 0.00000 0.00000 ; imides
4778 4797 4798 4799 3 33.20422 0.00000 -33.20422 0.00000 0.00000 0.00000 ; methylguanidinium ion
4778 4797 4798 4802 3 20.50160 0.00000 -20.50160 0.00000 0.00000 0.00000 ; imides
4779 4778 4797 4796 3 30.28798 -4.81160 -25.47638 0.00000 0.00000 0.00000 ; imides
4779 4778 4797 4798 3 33.20422 0.00000 -33.20422 0.00000 0.00000 0.00000 ; methylguanidinium ion
4779 4787 4788 4789 3 33.20422 0.00000 -33.20422 0.00000 0.00000 0.00000 ; methylguanidinium ion
4779 4787 4788 4796 3 30.28798 -4.81160 -25.47638 0.00000 0.00000 0.00000 ; imides
4780 4779 4787 4788 3 33.20422 0.00000 -33.20422 0.00000 0.00000 0.00000 ; methylguanidinium ion
4781 4782 11491 11490 3 1.58992 4.76976 0.00000 -6.35968 0.00000 0.00000
4781 4782 11491 11492 3 1.58992 4.76976 0.00000 -6.35968 0.00000 0.00000
4781 4782 11491 11493 3 1.58992 4.76976 0.00000 -6.35968 0.00000 0.00000
4782 11491 11490 11489 3 1.78866 3.49154 0.53555 -5.81576 0.00000 0.00000
4782 11491 11490 11494 3 -1.26775 3.02085 1.74473 -3.49782 0.00000 0.00000
4787 4779 4780 4781 3 33.20422 0.00000 -33.20422 0.00000 0.00000 0.00000 ; methylguanidinium ion
4787 4779 4780 4785 3 20.50160 0.00000 -20.50160 0.00000 0.00000 0.00000 ; imides
4787 4788 4796 4797 3 30.28798 -4.81160 -25.47638 0.00000 0.00000 0.00000 ; imides
4788 4796 4797 4778 3 30.28798 -4.81160 -25.47638 0.00000 0.00000 0.00000 ; imides
4788 4796 4797 4798 3 33.20422 0.00000 -33.20422 0.00000 0.00000 0.00000 ; methylguanidinium ion
4789 4788 4796 4797 3 33.20422 0.00000 -33.20422 0.00000 0.00000 0.00000 ; methylguanidinium ion
4790 4791 10425 10424 3 1.58992 4.76976 0.00000 -6.35968 0.00000 0.00000
4790 4791 10425 10426 3 1.58992 4.76976 0.00000 -6.35968 0.00000 0.00000
4790 4791 10425 10427 3 1.58992 4.76976 0.00000 -6.35968 0.00000 0.00000
4791 10425 10424 10423 3 1.78866 3.49154 0.53555 -5.81576 0.00000 0.00000
4791 10425 10424 10428 3 -1.26775 3.02085 1.74473 -3.49782 0.00000 0.00000
4796 4788 4789 4790 3 33.20422 0.00000 -33.20422 0.00000 0.00000 0.00000 ; methylguanidinium ion
4796 4788 4789 4794 3 20.50160 0.00000 -20.50160 0.00000 0.00000 0.00000 ; imides
4797 4778 4779 4780 3 33.20422 0.00000 -33.20422 0.00000 0.00000 0.00000 ; methylguanidinium ion
4797 4778 4779 4787 3 30.28798 -4.81160 -25.47638 0.00000 0.00000 0.00000 ; imides
4799 473 472 471 3 1.58992 4.76976 0.00000 -6.35968 0.00000 0.00000
4799 473 472 474 3 1.58992 4.76976 0.00000 -6.35968 0.00000 0.00000
4799 473 472 475 3 1.58992 4.76976 0.00000 -6.35968 0.00000 0.00000
4804 4805 4813 4814 3 30.28798 -4.81160 -25.47638 0.00000 0.00000 0.00000 ; imides
4804 4823 4824 4825 3 33.20422 0.00000 -33.20422 0.00000 0.00000 0.00000 ; methylguanidinium ion
4804 4823 4824 4829 3 20.50160 0.00000 -20.50160 0.00000 0.00000 0.00000 ; imides
4805 4804 4823 4822 3 30.28798 -4.81160 -25.47638 0.00000 0.00000 0.00000 ; imides
4805 4804 4823 4824 3 33.20422 0.00000 -33.20422 0.00000 0.00000 0.00000 ; methylguanidinium ion
4805 4813 4814 4815 3 33.20422 0.00000 -33.20422 0.00000 0.00000 0.00000 ; methylguanidinium ion
4805 4813 4814 4822 3 30.28798 -4.81160 -25.47638 0.00000 0.00000 0.00000 ; imides
4806 4805 4813 4814 3 33.20422 0.00000 -33.20422 0.00000 0.00000 0.00000 ; methylguanidinium ion
4807 4808 12468 12467 3 1.58992 4.76976 0.00000 -6.35968 0.00000 0.00000
4807 4808 12468 12469 3 1.58992 4.76976 0.00000 -6.35968 0.00000 0.00000
4807 4808 12468 12470 3 1.58992 4.76976 0.00000 -6.35968 0.00000 0.00000
4808 12468 12467 12466 3 1.78866 3.49154 0.53555 -5.81576 0.00000 0.00000
4808 12468 12467 12471 3 -1.26775 3.02085 1.74473 -3.49782 0.00000 0.00000
4813 4805 4806 4807 3 33.20422 0.00000 -33.20422 0.00000 0.00000 0.00000 ; methylguanidinium ion
4813 4805 4806 4811 3 20.50160 0.00000 -20.50160 0.00000 0.00000 0.00000 ; imides
4813 4814 4822 4823 3 30.28798 -4.81160 -25.47638 0.00000 0.00000 0.00000 ; imides
4814 4822 4823 4804 3 30.28798 -4.81160 -25.47638 0.00000 0.00000 0.00000 ; imides
4814 4822 4823 4824 3 33.20422 0.00000 -33.20422 0.00000 0.00000 0.00000 ; methylguanidinium ion
4815 4814 4822 4823 3 33.20422 0.00000 -33.20422 0.00000 0.00000 0.00000 ; methylguanidinium ion
4816 4817 8262 8261 3 1.58992 4.76976 0.00000 -6.35968 0.00000 0.00000
4816 4817 8262 8263 3 1.58992 4.76976 0.00000 -6.35968 0.00000 0.00000
4816 4817 8262 8264 3 1.58992 4.76976 0.00000 -6.35968 0.00000 0.00000
4817 8262 8261 8260 3 1.78866 3.49154 0.53555 -5.81576 0.00000 0.00000
4817 8262 8261 8265 3 -1.26775 3.02085 1.74473 -3.49782 0.00000 0.00000
4822 4814 4815 4816 3 33.20422 0.00000 -33.20422 0.00000 0.00000 0.00000 ; methylguanidinium ion
4822 4814 4815 4820 3 20.50160 0.00000 -20.50160 0.00000 0.00000 0.00000 ; imides
4823 4804 4805 4806 3 33.20422 0.00000 -33.20422 0.00000 0.00000 0.00000 ; methylguanidinium ion
4823 4804 4805 4813 3 30.28798 -4.81160 -25.47638 0.00000 0.00000 0.00000 ; imides
4825 4826 9200 9199 3 1.58992 4.76976 0.00000 -6.35968 0.00000 0.00000
4825 4826 9200 9201 3 1.58992 4.76976 0.00000 -6.35968 0.00000 0.00000
4825 4826 9200 9202 3 1.58992 4.76976 0.00000 -6.35968 0.00000 0.00000
4826 9200 9199 9198 3 1.78866 3.49154 0.53555 -5.81576 0.00000 0.00000
4826 9200 9199 9203 3 -1.26775 3.02085 1.74473 -3.49782 0.00000 0.00000
4831 4832 4839 4840 3 30.28798 -4.81160 -25.47638 0.00000 0.00000 0.00000 ; imides
4831 4848 4849 4850 3 33.20422 0.00000 -33.20422 0.00000 0.00000 0.00000 ; methylguanidinium ion
4831 4848 4849 4854 3 20.50160 0.00000 -20.50160 0.00000 0.00000 0.00000 ; imides
4832 4831 4848 4847 3 30.28798 -4.81160 -25.47638 0.00000 0.00000 0.00000 ; imides
4832 4831 4848 4849 3 33.20422 0.00000 -33.20422 0.00000 0.00000 0.00000 ; methylguanidinium ion
4832 4839 4840 4841 3 33.20422 0.00000 -33.20422 0.00000 0.00000 0.00000 ; methylguanidinium ion
4832 4839 4840 4847 3 30.28798 -4.81160 -25.47638 0.00000 0.00000 0.00000 ; imides
4833 4832 4839 4840 3 33.20422 0.00000 -33.20422 0.00000 0.00000 0.00000 ; methylguanidinium ion
4834 1942 1941 1940 3 1.58992 4.76976 0.00000 -6.35968 0.00000 0.00000
4834 1942 1941 1943 3 1.58992 4.76976 0.00000 -6.35968 0.00000 0.00000
4834 1942 1941 1944 3 1.58992 4.76976 0.00000 -6.35968 0.00000 0.00000
4839 4832 4833 4834 3 33.20422 0.00000 -33.20422 0.00000 0.00000 0.00000 ; methylguanidinium ion
4839 4832 4833 4837 3 20.50160 0.00000 -20.50160 0.00000 0.00000 0.00000 ; imides
4839 4840 4847 4848 3 30.28798 -4.81160 -25.47638 0.00000 0.00000 0.00000 ; imides
4840 4847 4848 4831 3 30.28798 -4.81160 -25.47638 0.00000 0.00000 0.00000 ; imides
4840 4847 4848 4849 3 33.20422 0.00000 -33.20422 0.00000 0.00000 0.00000 ; methylguanidinium ion
4841 4840 4847 4848 3 33.20422 0.00000 -33.20422 0.00000 0.00000 0.00000 ; methylguanidinium ion
4842 4718 4717 4716 3 1.58992 4.76976 0.00000 -6.35968 0.00000 0.00000
4842 4718 4717 4719 3 1.58992 4.76976 0.00000 -6.35968 0.00000 0.00000
4842 4718 4717 4720 3 1.58992 4.76976 0.00000 -6.35968 0.00000 0.00000
4847 4840 4841 4842 3 33.20422 0.00000 -33.20422 0.00000 0.00000 0.00000 ; methylguanidinium ion
4847 4840 4841 4845 3 20.50160 0.00000 -20.50160 0.00000 0.00000 0.00000 ; imides
4848 4831 4832 4833 3 33.20422 0.00000 -33.20422 0.00000 0.00000 0.00000 ; methylguanidinium ion
4848 4831 4832 4839 3 30.28798 -4.81160 -25.47638 0.00000 0.00000 0.00000 ; imides
4850 4851 7435 7434 3 1.58992 4.76976 0.00000 -6.35968 0.00000 0.00000
4850 4851 7435 7436 3 1.58992 4.76976 0.00000 -6.35968 0.00000 0.00000
4850 4851 7435 7437 3 1.58992 4.76976 0.00000 -6.35968 0.00000 0.00000
4851 7435 7434 7433 3 1.78866 3.49154 0.53555 -5.81576 0.00000 0.00000
4851 7435 7434 7438 3 -1.26775 3.02085 1.74473 -3.49782 0.00000 0.00000
4856 4857 4865 4866 3 30.28798 -4.81160 -25.47638 0.00000 0.00000 0.00000 ; imides
4856 4874 4875 4876 3 33.20422 0.00000 -33.20422 0.00000 0.00000 0.00000 ; methylguanidinium ion
4856 4874 4875 4880 3 20.50160 0.00000 -20.50160 0.00000 0.00000 0.00000 ; imides
4857 4856 4874 4873 3 30.28798 -4.81160 -25.47638 0.00000 0.00000 0.00000 ; imides
4857 4856 4874 4875 3 33.20422 0.00000 -33.20422 0.00000 0.00000 0.00000 ; methylguanidinium ion
4857 4865 4866 4867 3 33.20422 0.00000 -33.20422 0.00000 0.00000 0.00000 ; methylguanidinium ion
4857 4865 4866 4873 3 30.28798 -4.81160 -25.47638 0.00000 0.00000 0.00000 ; imides
4858 4857 4865 4866 3 33.20422 0.00000 -33.20422 0.00000 0.00000 0.00000 ; methylguanidinium ion
4859 4860 8990 8989 3 1.58992 4.76976 0.00000 -6.35968 0.00000 0.00000
4859 4860 8990 8991 3 1.58992 4.76976 0.00000 -6.35968 0.00000 0.00000
4859 4860 8990 8992 3 1.58992 4.76976 0.00000 -6.35968 0.00000 0.00000
4860 8990 8989 8988 3 1.78866 3.49154 0.53555 -5.81576 0.00000 0.00000
4860 8990 8989 8993 3 -1.26775 3.02085 1.74473 -3.49782 0.00000 0.00000
4865 4857 4858 4859 3 33.20422 0.00000 -33.20422 0.00000 0.00000 0.00000 ; methylguanidinium ion
4865 4857 4858 4863 3 20.50160 0.00000 -20.50160 0.00000 0.00000 0.00000 ; imides
4865 4866 4873 4874 3 30.28798 -4.81160 -25.47638 0.00000 0.00000 0.00000 ; imides
4866 4873 4874 4856 3 30.28798 -4.81160 -25.47638 0.00000 0.00000 0.00000 ; imides
4866 4873 4874 4875 3 33.20422 0.00000 -33.20422 0.00000 0.00000 0.00000 ; methylguanidinium ion
4867 4866 4873 4874 3 33.20422 0.00000 -33.20422 0.00000 0.00000 0.00000 ; methylguanidinium ion
4868 24 23 22 3 1.58992 4.76976 0.00000 -6.35968 0.00000 0.00000
4868 24 23 25 3 1.58992 4.76976 0.00000 -6.35968 0.00000 0.00000
4868 24 23 26 3 1.58992 4.76976 0.00000 -6.35968 0.00000 0.00000
4873 4866 4867 4868 3 33.20422 0.00000 -33.20422 0.00000 0.00000 0.00000 ; methylguanidinium ion
4873 4866 4867 4871 3 20.50160 0.00000 -20.50160 0.00000 0.00000 0.00000 ; imides
4874 4856 4857 4858 3 33.20422 0.00000 -33.20422 0.00000 0.00000 0.00000 ; methylguanidinium ion
4874 4856 4857 4865 3 30.28798 -4.81160 -25.47638 0.00000 0.00000 0.00000 ; imides
4876 4877 7081 7080 3 1.58992 4.76976 0.00000 -6.35968 0.00000 0.00000
4876 4877 7081 7082 3 1.58992 4.76976 0.00000 -6.35968 0.00000 0.00000
4876 4877 7081 7083 3 1.58992 4.76976 0.00000 -6.35968 0.00000 0.00000
4877 7081 7080 7079 3 1.78866 3.49154 0.53555 -5.81576 0.00000 0.00000
4877 7081 7080 7084 3 -1.26775 3.02085 1.74473 -3.49782 0.00000 0.00000
4882 4883 4891 4892 3 30.28798 -4.81160 -25.47638 0.00000 0.00000 0.00000 ; imides
4882 4901 4902 4903 3 33.20422 0.00000 -33.20422 0.00000 0.00000 0.00000 ; methylguanidinium ion
4882 4901 4902 4907 3 20.50160 0.00000 -20.50160 0.00000 0.00000 0.00000 ; imides
4883 4882 4901 4900 3 30.28798 -4.81160 -25.47638 0.00000 0.00000 0.00000 ; imides
4883 4882 4901 4902 3 33.20422 0.00000 -33.20422 0.00000 0.00000 0.00000 ; methylguanidinium ion
4883 4891 4892 4893 3 33.20422 0.00000 -33.20422 0.00000 0.00000 0.00000 ; methylguanidinium ion
4883 4891 4892 4900 3 30.28798 -4.81160 -25.47638 0.00000 0.00000 0.00000 ; imides
4884 4883 4891 4892 3 33.20422 0.00000 -33.20422 0.00000 0.00000 0.00000 ; methylguanidinium ion
4885 4886 6850 6849 3 1.58992 4.76976 0.00000 -6.35968 0.00000 0.00000
4885 4886 6850 6851 3 1.58992 4.76976 0.00000 -6.35968 0.00000 0.00000
4885 4886 6850 6852 3 1.58992 4.76976 0.00000 -6.35968 0.00000 0.00000
4886 6850 6849 6848 3 1.78866 3.49154 0.53555 -5.81576 0.00000 0.00000
4886 6850 6849 6853 3 -1.26775 3.02085 1.74473 -3.49782 0.00000 0.00000
4891 4883 4884 4885 3 33.20422 0.00000 -33.20422 0.00000 0.00000 0.00000 ; methylguanidinium ion
4891 4883 4884 4889 3 20.50160 0.00000 -20.50160 0.00000 0.00000 0.00000 ; imides
4891 4892 4900 4901 3 30.28798 -4.81160 -25.47638 0.00000 0.00000 0.00000 ; imides
4892 4900 4901 4882 3 30.28798 -4.81160 -25.47638 0.00000 0.00000 0.00000 ; imides
4892 4900 4901 4902 3 33.20422 0.00000 -33.20422 0.00000 0.00000 0.00000 ; methylguanidinium ion
4893 4892 4900 4901 3 33.20422 0.00000 -33.20422 0.00000 0.00000 0.00000 ; methylguanidinium ion
4894 4895 6901 6900 3 1.58992 4.76976 0.00000 -6.35968 0.00000 0.00000
4894 4895 6901 6902 3 1.58992 4.76976 0.00000 -6.35968 0.00000 0.00000
4894 4895 6901 6903 3 1.58992 4.76976 0.00000 -6.35968 0.00000 0.00000
4895 6901 6900 6899 3 1.78866 3.49154 0.53555 -5.81576 0.00000 0.00000
4895 6901 6900 6904 3 -1.26775 3.02085 1.74473 -3.49782 0.00000 0.00000
4900 4892 4893 4894 3 33.20422 0.00000 -33.20422 0.00000 0.00000 0.00000 ; methylguanidinium ion
4900 4892 4893 4898 3 20.50160 0.00000 -20.50160 0.00000 0.00000 0.00000 ; imides
4901 4882 4883 4884 3 33.20422 0.00000 -33.20422 0.00000 0.00000 0.00000 ; methylguanidinium ion
4901 4882 4883 4891 3 30.28798 -4.81160 -25.47638 0.00000 0.00000 0.00000 ; imides
4903 4904 5833 5832 3 1.58992 4.76976 0.00000 -6.35968 0.00000 0.00000
4903 4904 5833 5834 3 1.58992 4.76976 0.00000 -6.35968 0.00000 0.00000
4903 4904 5833 5835 3 1.58992 4.76976 0.00000 -6.35968 0.00000 0.00000
4904 5833 5832 5831 3 1.78866 3.49154 0.53555 -5.81576 0.00000 0.00000
4904 5833 5832 5836 3 -1.26775 3.02085 1.74473 -3.49782 0.00000 0.00000
4909 4910 4917 4918 3 30.28798 -4.81160 -25.47638 0.00000 0.00000 0.00000 ; imides
4909 4926 4927 4928 3 33.20422 0.00000 -33.20422 0.00000 0.00000 0.00000 ; methylguanidinium ion
4909 4926 4927 4932 3 20.50160 0.00000 -20.50160 0.00000 0.00000 0.00000 ; imides
4910 4909 4926 4925 3 30.28798 -4.81160 -25.47638 0.00000 0.00000 0.00000 ; imides
4910 4909 4926 4927 3 33.20422 0.00000 -33.20422 0.00000 0.00000 0.00000 ; methylguanidinium ion
4910 4917 4918 4919 3 33.20422 0.00000 -33.20422 0.00000 0.00000 0.00000 ; methylguanidinium ion
4910 4917 4918 4925 3 30.28798 -4.81160 -25.47638 0.00000 0.00000 0.00000 ; imides
4911 4910 4917 4918 3 33.20422 0.00000 -33.20422 0.00000 0.00000 0.00000 ; methylguanidinium ion
4912 663 662 661 3 1.58992 4.76976 0.00000 -6.35968 0.00000 0.00000
4912 663 662 664 3 1.58992 4.76976 0.00000 -6.35968 0.00000 0.00000
4912 663 662 665 3 1.58992 4.76976 0.00000 -6.35968 0.00000 0.00000
4917 4910 4911 4912 3 33.20422 0.00000 -33.20422 0.00000 0.00000 0.00000 ; methylguanidinium ion
4917 4910 4911 4915 3 20.50160 0.00000 -20.50160 0.00000 0.00000 0.00000 ; imides
4917 4918 4925 4926 3 30.28798 -4.81160 -25.47638 0.00000 0.00000 0.00000 ; imides
4918 4925 4926 4909 3 30.28798 -4.81160 -25.47638 0.00000 0.00000 0.00000 ; imides
4918 4925 4926 4927 3 33.20422 0.00000 -33.20422 0.00000 0.00000 0.00000 ; methylguanidinium ion
4919 4918 4925 4926 3 33.20422 0.00000 -33.20422 0.00000 0.00000 0.00000 ; methylguanidinium ion
4920 2164 2163 2162 3 1.58992 4.76976 0.00000 -6.35968 0.00000 0.00000
4920 2164 2163 2165 3 1.58992 4.76976 0.00000 -6.35968 0.00000 0.00000
4920 2164 2163 2166 3 1.58992 4.76976 0.00000 -6.35968 0.00000 0.00000
4925 4918 4919 4920 3 33.20422 0.00000 -33.20422 0.00000 0.00000 0.00000 ; methylguanidinium ion
4925 4918 4919 4923 3 20.50160 0.00000 -20.50160 0.00000 0.00000 0.00000 ; imides
4926 4909 4910 4911 3 33.20422 0.00000 -33.20422 0.00000 0.00000 0.00000 ; methylguanidinium ion
4926 4909 4910 4917 3 30.28798 -4.81160 -25.47638 0.00000 0.00000 0.00000 ; imides
4928 4929 6280 6279 3 1.58992 4.76976 0.00000 -6.35968 0.00000 0.00000
4928 4929 6280 6281 3 1.58992 4.76976 0.00000 -6.35968 0.00000 0.00000
4928 4929 6280 6282 3 1.58992 4.76976 0.00000 -6.35968 0.00000 0.00000
4929 6280 6279 6278 3 1.78866 3.49154 0.53555 -5.81576 0.00000 0.00000
4929 6280 6279 6283 3 -1.26775 3.02085 1.74473 -3.49782 0.00000 0.00000
4934 4935 4943 4944 3 30.28798 -4.81160 -25.47638 0.00000 0.00000 0.00000 ; imides
4934 4954 4955 4956 3 33.20422 0.00000 -33.20422 0.00000 0.00000 0.00000 ; methylguanidinium ion
4934 4954 4955 4959 3 20.50160 0.00000 -20.50160 0.00000 0.00000 0.00000 ; imides
4935 4934 4954 4953 3 30.28798 -4.81160 -25.47638 0.00000 0.00000 0.00000 ; imides
4935 4934 4954 4955 3 33.20422 0.00000 -33.20422 0.00000 0.00000 0.00000 ; methylguanidinium ion
4935 4943 4944 4945 3 33.20422 0.00000 -33.20422 0.00000 0.00000 0.00000 ; methylguanidinium ion
4935 4943 4944 4953 3 30.28798 -4.81160 -25.47638 0.00000 0.00000 0.00000 ; imides
4936 4935 4943 4944 3 33.20422 0.00000 -33.20422 0.00000 0.00000 0.00000 ; methylguanidinium ion
4937 4938 7211 7210 3 1.58992 4.76976 0.00000 -6.35968 0.00000 0.00000
4937 4938 7211 7212 3 1.58992 4.76976 0.00000 -6.35968 0.00000 0.00000
4937 4938 7211 7213 3 1.58992 4.76976 0.00000 -6.35968 0.00000 0.00000
4938 7211 7210 7209 3 1.78866 3.49154 0.53555 -5.81576 0.00000 0.00000
4938 7211 7210 7214 3 -1.26775 3.02085 1.74473 -3.49782 0.00000 0.00000
4943 4935 4936 4937 3 33.20422 0.00000 -33.20422 0.00000 0.00000 0.00000 ; methylguanidinium ion
4943 4935 4936 4941 3 20.50160 0.00000 -20.50160 0.00000 0.00000 0.00000 ; imides
4943 4944 4953 4954 3 30.28798 -4.81160 -25.47638 0.00000 0.00000 0.00000 ; imides
4944 4953 4954 4934 3 30.28798 -4.81160 -25.47638 0.00000 0.00000 0.00000 ; imides
4944 4953 4954 4955 3 33.20422 0.00000 -33.20422 0.00000 0.00000 0.00000 ; methylguanidinium ion
4945 4944 4953 4954 3 33.20422 0.00000 -33.20422 0.00000 0.00000 0.00000 ; methylguanidinium ion
4953 4944 4945 4946 3 33.20422 0.00000 -33.20422 0.00000 0.00000 0.00000 ; methylguanidinium ion
4953 4944 4945 4951 3 20.50160 0.00000 -20.50160 0.00000 0.00000 0.00000 ; imides
4954 4934 4935 4936 3 33.20422 0.00000 -33.20422 0.00000 0.00000 0.00000 ; methylguanidinium ion
4954 4934 4935 4943 3 30.28798 -4.81160 -25.47638 0.00000 0.00000 0.00000 ; imides
4956 3098 3097 3096 3 1.58992 4.76976 0.00000 -6.35968 0.00000 0.00000
4956 3098 3097 3099 3 1.58992 4.76976 0.00000 -6.35968 0.00000 0.00000
4956 3098 3097 3100 3 1.58992 4.76976 0.00000 -6.35968 0.00000 0.00000
4961 4962 4969 4970 3 30.28798 -4.81160 -25.47638 0.00000 0.00000 0.00000 ; imides
4961 4978 4979 4980 3 33.20422 0.00000 -33.20422 0.00000 0.00000 0.00000 ; methylguanidinium ion
4961 4978 4979 4984 3 20.50160 0.00000 -20.50160 0.00000 0.00000 0.00000 ; imides
4962 4961 4978 4977 3 30.28798 -4.81160 -25.47638 0.00000 0.00000 0.00000 ; imides
4962 4961 4978 4979 3 33.20422 0.00000 -33.20422 0.00000 0.00000 0.00000 ; methylguanidinium ion
4962 4969 4970 4971 3 33.20422 0.00000 -33.20422 0.00000 0.00000 0.00000 ; methylguanidinium ion
4962 4969 4970 4977 3 30.28798 -4.81160 -25.47638 0.00000 0.00000 0.00000 ; imides
4963 4962 4969 4970 3 33.20422 0.00000 -33.20422 0.00000 0.00000 0.00000 ; methylguanidinium ion
4964 89 88 87 3 1.58992 4.76976 0.00000 -6.35968 0.00000 0.00000
4964 89 88 90 3 1.58992 4.76976 0.00000 -6.35968 0.00000 0.00000
4964 89 88 91 3 1.58992 4.76976 0.00000 -6.35968 0.00000 0.00000
4969 4962 4963 4964 3 33.20422 0.00000 -33.20422 0.00000 0.00000 0.00000 ; methylguanidinium ion
4969 4962 4963 4967 3 20.50160 0.00000 -20.50160 0.00000 0.00000 0.00000 ; imides
4969 4970 4977 4978 3 30.28798 -4.81160 -25.47638 0.00000 0.00000 0.00000 ; imides
4970 4977 4978 4961 3 30.28798 -4.81160 -25.47638 0.00000 0.00000 0.00000 ; imides
4970 4977 4978 4979 3 33.20422 0.00000 -33.20422 0.00000 0.00000 0.00000 ; methylguanidinium ion
4971 4970 4977 4978 3 33.20422 0.00000 -33.20422 0.00000 0.00000 0.00000 ; methylguanidinium ion
4972 4568 4567 4566 3 1.58992 4.76976 0.00000 -6.35968 0.00000 0.00000
4972 4568 4567 4569 3 1.58992 4.76976 0.00000 -6.35968 0.00000 0.00000
4972 4568 4567 4570 3 1.58992 4.76976 0.00000 -6.35968 0.00000 0.00000
4977 4970 4971 4972 3 33.20422 0.00000 -33.20422 0.00000 0.00000 0.00000 ; methylguanidinium ion
4977 4970 4971 4975 3 20.50160 0.00000 -20.50160 0.00000 0.00000 0.00000 ; imides
4978 4961 4962 4963 3 33.20422 0.00000 -33.20422 0.00000 0.00000 0.00000 ; methylguanidinium ion
4978 4961 4962 4969 3 30.28798 -4.81160 -25.47638 0.00000 0.00000 0.00000 ; imides
4980 4981 12756 12755 3 1.58992 4.76976 0.00000 -6.35968 0.00000 0.00000
4980 4981 12756 12757 3 1.58992 4.76976 0.00000 -6.35968 0.00000 0.00000
4980 4981 12756 12758 3 1.58992 4.76976 0.00000 -6.35968 0.00000 0.00000
4981 12756 12755 12754 3 1.78866 3.49154 0.53555 -5.81576 0.00000 0.00000
4981 12756 12755 12759 3 -1.26775 3.02085 1.74473 -3.49782 0.00000 0.00000
4986 4987 4995 4996 3 30.28798 -4.81160 -25.47638 0.00000 0.00000 0.00000 ; imides
4986 5005 5006 5007 3 33.20422 0.00000 -33.20422 0.00000 0.00000 0.00000 ; methylguanidinium ion
4986 5005 5006 5012 3 20.50160 0.00000 -20.50160 0.00000 0.00000 0.00000 ; imides
4987 4986 5005 5004 3 30.28798 -4.81160 -25.47638 0.00000 0.00000 0.00000 ; imides
4987 4986 5005 5006 3 33.20422 0.00000 -33.20422 0.00000 0.00000 0.00000 ; methylguanidinium ion
4987 4995 4996 4997 3 33.20422 0.00000 -33.20422 0.00000 0.00000 0.00000 ; methylguanidinium ion
4987 4995 4996 5004 3 30.28798 -4.81160 -25.47638 0.00000 0.00000 0.00000 ; imides
4988 4987 4995 4996 3 33.20422 0.00000 -33.20422 0.00000 0.00000 0.00000 ; methylguanidinium ion
4989 4990 6198 6197 3 1.58992 4.76976 0.00000 -6.35968 0.00000 0.00000
4989 4990 6198 6199 3 1.58992 4.76976 0.00000 -6.35968 0.00000 0.00000
4989 4990 6198 6200 3 1.58992 4.76976 0.00000 -6.35968 0.00000 0.00000
4990 6198 6197 6196 3 1.78866 3.49154 0.53555 -5.81576 0.00000 0.00000
4990 6198 6197 6201 3 -1.26775 3.02085 1.74473 -3.49782 0.00000 0.00000
4995 4987 4988 4989 3 33.20422 0.00000 -33.20422 0.00000 0.00000 0.00000 ; methylguanidinium ion
4995 4987 4988 4993 3 20.50160 0.00000 -20.50160 0.00000 0.00000 0.00000 ; imides
4995 4996 5004 5005 3 30.28798 -4.81160 -25.47638 0.00000 0.00000 0.00000 ; imides
4996 5004 5005 4986 3 30.28798 -4.81160 -25.47638 0.00000 0.00000 0.00000 ; imides
4996 5004 5005 5006 3 33.20422 0.00000 -33.20422 0.00000 0.00000 0.00000 ; methylguanidinium ion
4997 4996 5004 5005 3 33.20422 0.00000 -33.20422 0.00000 0.00000 0.00000 ; methylguanidinium ion
4998 4999 5415 5414 3 1.58992 4.76976 0.00000 -6.35968 0.00000 0.00000
4998 4999 5415 5416 3 1.58992 4.76976 0.00000 -6.35968 0.00000 0.00000
4998 4999 5415 5417 3 1.58992 4.76976 0.00000 -6.35968 0.00000 0.00000
4999 5415 5414 5413 3 1.78866 3.49154 0.53555 -5.81576 0.00000 0.00000
4999 5415 5414 5418 3 -1.26775 3.02085 1.74473 -3.49782 0.00000 0.00000
5004 4996 4997 4998 3 33.20422 0.00000 -33.20422 0.00000 0.00000 0.00000 ; methylguanidinium ion
5004 4996 4997 5002 3 20.50160 0.00000 -20.50160 0.00000 0.00000 0.00000 ; imides
5005 4986 4987 4988 3 33.20422 0.00000 -33.20422 0.00000 0.00000 0.00000 ; methylguanidinium ion
5005 4986 4987 4995 3 30.28798 -4.81160 -25.47638 0.00000 0.00000 0.00000 ; imides
5014 5015 5023 5024 3 30.28798 -4.81160 -25.47638 0.00000 0.00000 0.00000 ; imides
5014 5032 5033 5034 3 33.20422 0.00000 -33.20422 0.00000 0.00000 0.00000 ; methylguanidinium ion
5014 5032 5033 5038 3 20.50160 0.00000 -20.50160 0.00000 0.00000 0.00000 ; imides
5015 5014 5032 5031 3 30.28798 -4.81160 -25.47638 0.00000 0.00000 0.00000 ; imides
5015 5014 5032 5033 3 33.20422 0.00000 -33.20422 0.00000 0.00000 0.00000 ; methylguanidinium ion
5015 5023 5024 5025 3 33.20422 0.00000 -33.20422 0.00000 0.00000 0.00000 ; methylguanidinium ion
5015 5023 5024 5031 3 30.28798 -4.81160 -25.47638 0.00000 0.00000 0.00000 ; imides
5016 5015 5023 5024 3 33.20422 0.00000 -33.20422 0.00000 0.00000 0.00000 ; methylguanidinium ion
5017 5018 9978 9977 3 1.58992 4.76976 0.00000 -6.35968 0.00000 0.00000
5017 5018 9978 9979 3 1.58992 4.76976 0.00000 -6.35968 0.00000 0.00000
5017 5018 9978 9980 3 1.58992 4.76976 0.00000 -6.35968 0.00000 0.00000
5018 9978 9977 9976 3 1.78866 3.49154 0.53555 -5.81576 0.00000 0.00000
5018 9978 9977 9981 3 -1.26775 3.02085 1.74473 -3.49782 0.00000 0.00000
5023 5015 5016 5017 3 33.20422 0.00000 -33.20422 0.00000 0.00000 0.00000 ; methylguanidinium ion
5023 5015 5016 5021 3 20.50160 0.00000 -20.50160 0.00000 0.00000 0.00000 ; imides
5023 5024 5031 5032 3 30.28798 -4.81160 -25.47638 0.00000 0.00000 0.00000 ; imides
5024 5031 5032 5014 3 30.28798 -4.81160 -25.47638 0.00000 0.00000 0.00000 ; imides
5024 5031 5032 5033 3 33.20422 0.00000 -33.20422 0.00000 0.00000 0.00000 ; methylguanidinium ion
5025 5024 5031 5032 3 33.20422 0.00000 -33.20422 0.00000 0.00000 0.00000 ; methylguanidinium ion
5026 446 445 444 3 1.58992 4.76976 0.00000 -6.35968 0.00000 0.00000
5026 446 445 447 3 1.58992 4.76976 0.00000 -6.35968 0.00000 0.00000
5026 446 445 448 3 1.58992 4.76976 0.00000 -6.35968 0.00000 0.00000
5031 5024 5025 5026 3 33.20422 0.00000 -33.20422 0.00000 0.00000 0.00000 ; methylguanidinium ion
5031 5024 5025 5029 3 20.50160 0.00000 -20.50160 0.00000 0.00000 0.00000 ; imides
5032 5014 5015 5016 3 33.20422 0.00000 -33.20422 0.00000 0.00000 0.00000 ; methylguanidinium ion
5032 5014 5015 5023 3 30.28798 -4.81160 -25.47638 0.00000 0.00000 0.00000 ; imides
5034 5035 10834 10833 3 1.58992 4.76976 0.00000 -6.35968 0.00000 0.00000
5034 5035 10834 10835 3 1.58992 4.76976 0.00000 -6.35968 0.00000 0.00000
5034 5035 10834 10836 3 1.58992 4.76976 0.00000 -6.35968 0.00000 0.00000
5035 10834 10833 10832 3 1.78866 3.49154 0.53555 -5.81576 0.00000 0.00000
5035 10834 10833 10837 3 -1.26775 3.02085 1.74473 -3.49782 0.00000 0.00000
5040 5041 5048 5049 3 30.28798 -4.81160 -25.47638 0.00000 0.00000 0.00000 ; imides
5040 5059 5060 5061 3 33.20422 0.00000 -33.20422 0.00000 0.00000 0.00000 ; methylguanidinium ion
5040 5059 5060 5064 3 20.50160 0.00000 -20.50160 0.00000 0.00000 0.00000 ; imides
5041 5040 5059 5058 3 30.28798 -4.81160 -25.47638 0.00000 0.00000 0.00000 ; imides
5041 5040 5059 5060 3 33.20422 0.00000 -33.20422 0.00000 0.00000 0.00000 ; methylguanidinium ion
5041 5048 5049 5050 3 33.20422 0.00000 -33.20422 0.00000 0.00000 0.00000 ; methylguanidinium ion
5041 5048 5049 5058 3 30.28798 -4.81160 -25.47638 0.00000 0.00000 0.00000 ; imides
5042 5041 5048 5049 3 33.20422 0.00000 -33.20422 0.00000 0.00000 0.00000 ; methylguanidinium ion
5043 2846 2845 2844 3 1.58992 4.76976 0.00000 -6.35968 0.00000 0.00000
5043 2846 2845 2847 3 1.58992 4.76976 0.00000 -6.35968 0.00000 0.00000
5043 2846 2845 2848 3 1.58992 4.76976 0.00000 -6.35968 0.00000 0.00000
5048 5041 5042 5043 3 33.20422 0.00000 -33.20422 0.00000 0.00000 0.00000 ; methylguanidinium ion
5048 5041 5042 5046 3 20.50160 0.00000 -20.50160 0.00000 0.00000 0.00000 ; imides
5048 5049 5058 5059 3 30.28798 -4.81160 -25.47638 0.00000 0.00000 0.00000 ; imides
5049 5058 5059 5040 3 30.28798 -4.81160 -25.47638 0.00000 0.00000 0.00000 ; imides
5049 5058 5059 5060 3 33.20422 0.00000 -33.20422 0.00000 0.00000 0.00000 ; methylguanidinium ion
5050 5049 5058 5059 3 33.20422 0.00000 -33.20422 0.00000 0.00000 0.00000 ; methylguanidinium ion
5058 5049 5050 5051 3 33.20422 0.00000 -33.20422 0.00000 0.00000 0.00000 ; methylguanidinium ion
5058 5049 5050 5056 3 20.50160 0.00000 -20.50160 0.00000 0.00000 0.00000 ; imides
5059 5040 5041 5042 3 33.20422 0.00000 -33.20422 0.00000 0.00000 0.00000 ; methylguanidinium ion
5059 5040 5041 5048 3 30.28798 -4.81160 -25.47638 0.00000 0.00000 0.00000 ; imides
5061 4764 4763 4762 3 1.58992 4.76976 0.00000 -6.35968 0.00000 0.00000
5061 4764 4763 4765 3 1.58992 4.76976 0.00000 -6.35968 0.00000 0.00000
5061 4764 4763 4766 3 1.58992 4.76976 0.00000 -6.35968 0.00000 0.00000
5066 5067 5075 5076 3 30.28798 -4.81160 -25.47638 0.00000 0.00000 0.00000 ; imides
5066 5085 5086 5087 3 33.20422 0.00000 -33.20422 0.00000 0.00000 0.00000 ; methylguanidinium ion
5066 5085 5086 5091 3 20.50160 0.00000 -20.50160 0.00000 0.00000 0.00000 ; imides
5067 5066 5085 5084 3 30.28798 -4.81160 -25.47638 0.00000 0.00000 0.00000 ; imides
5067 5066 5085 5086 3 33.20422 0.00000 -33.20422 0.00000 0.00000 0.00000 ; methylguanidinium ion
5067 5075 5076 5077 3 33.20422 0.00000 -33.20422 0.00000 0.00000 0.00000 ; methylguanidinium ion
5067 5075 5076 5084 3 30.28798 -4.81160 -25.47638 0.00000 0.00000 0.00000 ; imides
5068 5067 5075 5076 3 33.20422 0.00000 -33.20422 0.00000 0.00000 0.00000 ; methylguanidinium ion
5069 5070 7530 7529 3 1.58992 4.76976 0.00000 -6.35968 0.00000 0.00000
5069 5070 7530 7531 3 1.58992 4.76976 0.00000 -6.35968 0.00000 0.00000
5069 5070 7530 7532 3 1.58992 4.76976 0.00000 -6.35968 0.00000 0.00000
5070 7530 7529 7528 3 1.78866 3.49154 0.53555 -5.81576 0.00000 0.00000
5070 7530 7529 7533 3 -1.26775 3.02085 1.74473 -3.49782 0.00000 0.00000
5075 5067 5068 5069 3 33.20422 0.00000 -33.20422 0.00000 0.00000 0.00000 ; methylguanidinium ion
5075 5067 5068 5073 3 20.50160 0.00000 -20.50160 0.00000 0.00000 0.00000 ; imides
5075 5076 5084 5085 3 30.28798 -4.81160 -25.47638 0.00000 0.00000 0.00000 ; imides
5076 5084 5085 5066 3 30.28798 -4.81160 -25.47638 0.00000 0.00000 0.00000 ; imides
5076 5084 5085 5086 3 33.20422 0.00000 -33.20422 0.00000 0.00000 0.00000 ; methylguanidinium ion
5077 5076 5084 5085 3 33.20422 0.00000 -33.20422 0.00000 0.00000 0.00000 ; methylguanidinium ion
5078 5079 11036 11035 3 1.58992 4.76976 0.00000 -6.35968 0.00000 0.00000
5078 5079 11036 11037 3 1.58992 4.76976 0.00000 -6.35968 0.00000 0.00000
5078 5079 11036 11038 3 1.58992 4.76976 0.00000 -6.35968 0.00000 0.00000
5079 11036 11035 11034 3 1.78866 3.49154 0.53555 -5.81576 0.00000 0.00000
5079 11036 11035 11039 3 -1.26775 3.02085 1.74473 -3.49782 0.00000 0.00000
5084 5076 5077 5078 3 33.20422 0.00000 -33.20422 0.00000 0.00000 0.00000 ; methylguanidinium ion
5084 5076 5077 5082 3 20.50160 0.00000 -20.50160 0.00000 0.00000 0.00000 ; imides
5085 5066 5067 5068 3 33.20422 0.00000 -33.20422 0.00000 0.00000 0.00000 ; methylguanidinium ion
5085 5066 5067 5075 3 30.28798 -4.81160 -25.47638 0.00000 0.00000 0.00000 ; imides
5087 5088 6968 6967 3 1.58992 4.76976 0.00000 -6.35968 0.00000 0.00000
5087 5088 6968 6969 3 1.58992 4.76976 0.00000 -6.35968 0.00000 0.00000
5087 5088 6968 6970 3 1.58992 4.76976 0.00000 -6.35968 0.00000 0.00000
5088 6968 6967 6966 3 1.78866 3.49154 0.53555 -5.81576 0.00000 0.00000
5088 6968 6967 6971 3 -1.26775 3.02085 1.74473 -3.49782 0.00000 0.00000
5093 5094 5103 5104 3 30.28798 -4.81160 -25.47638 0.00000 0.00000 0.00000 ; imides
5093 5113 5114 5115 3 33.20422 0.00000 -33.20422 0.00000 0.00000 0.00000 ; methylguanidinium ion
5093 5113 5114 5120 3 20.50160 0.00000 -20.50160 0.00000 0.00000 0.00000 ; imides
5094 5093 5113 5112 3 30.28798 -4.81160 -25.47638 0.00000 0.00000 0.00000 ; imides
5094 5093 5113 5114 3 33.20422 0.00000 -33.20422 0.00000 0.00000 0.00000 ; methylguanidinium ion
5094 5103 5104 5105 3 33.20422 0.00000 -33.20422 0.00000 0.00000 0.00000 ; methylguanidinium ion
5094 5103 5104 5112 3 30.28798 -4.81160 -25.47638 0.00000 0.00000 0.00000 ; imides
5095 5094 5103 5104 3 33.20422 0.00000 -33.20422 0.00000 0.00000 0.00000 ; methylguanidinium ion
5103 5094 5095 5096 3 33.20422 0.00000 -33.20422 0.00000 0.00000 0.00000 ; methylguanidinium ion
5103 5094 5095 5101 3 20.50160 0.00000 -20.50160 0.00000 0.00000 0.00000 ; imides
5103 5104 5112 5113 3 30.28798 -4.81160 -25.47638 0.00000 0.00000 0.00000 ; imides
5104 5112 5113 5093 3 30.28798 -4.81160 -25.47638 0.00000 0.00000 0.00000 ; imides
5104 5112 5113 5114 3 33.20422 0.00000 -33.20422 0.00000 0.00000 0.00000 ; methylguanidinium ion
5105 5104 5112 5113 3 33.20422 0.00000 -33.20422 0.00000 0.00000 0.00000 ; methylguanidinium ion
5106 5107 11551 11550 3 1.58992 4.76976 0.00000 -6.35968 0.00000 0.00000
5106 5107 11551 11552 3 1.58992 4.76976 0.00000 -6.35968 0.00000 0.00000
5106 5107 11551 11553 3 1.58992 4.76976 0.00000 -6.35968 0.00000 0.00000
5107 11551 11550 11549 3 1.78866 3.49154 0.53555 -5.81576 0.00000 0.00000
5107 11551 11550 11554 3 -1.26775 3.02085 1.74473 -3.49782 0.00000 0.00000
5112 5104 5105 5106 3 33.20422 0.00000 -33.20422 0.00000 0.00000 0.00000 ; methylguanidinium ion
5112 5104 5105 5110 3 20.50160 0.00000 -20.50160 0.00000 0.00000 0.00000 ; imides
5113 5093 5094 5095 3 33.20422 0.00000 -33.20422 0.00000 0.00000 0.00000 ; methylguanidinium ion
5113 5093 5094 5103 3 30.28798 -4.81160 -25.47638 0.00000 0.00000 0.00000 ; imides
5122 5123 5132 5133 3 30.28798 -4.81160 -25.47638 0.00000 0.00000 0.00000 ; imides
5122 5142 5143 5144 3 33.20422 0.00000 -33.20422 0.00000 0.00000 0.00000 ; methylguanidinium ion
5122 5142 5143 5148 3 20.50160 0.00000 -20.50160 0.00000 0.00000 0.00000 ; imides
5123 5122 5142 5141 3 30.28798 -4.81160 -25.47638 0.00000 0.00000 0.00000 ; imides
5123 5122 5142 5143 3 33.20422 0.00000 -33.20422 0.00000 0.00000 0.00000 ; methylguanidinium ion
5123 5132 5133 5134 3 33.20422 0.00000 -33.20422 0.00000 0.00000 0.00000 ; methylguanidinium ion
5123 5132 5133 5141 3 30.28798 -4.81160 -25.47638 0.00000 0.00000 0.00000 ; imides
5124 5123 5132 5133 3 33.20422 0.00000 -33.20422 0.00000 0.00000 0.00000 ; methylguanidinium ion
5132 5123 5124 5125 3 33.20422 0.00000 -33.20422 0.00000 0.00000 0.00000 ; methylguanidinium ion
5132 5123 5124 5130 3 20.50160 0.00000 -20.50160 0.00000 0.00000 0.00000 ; imides
5132 5133 5141 5142 3 30.28798 -4.81160 -25.47638 0.00000 0.00000 0.00000 ; imides
5133 5141 5142 5122 3 30.28798 -4.81160 -25.47638 0.00000 0.00000 0.00000 ; imides
5133 5141 5142 5143 3 33.20422 0.00000 -33.20422 0.00000 0.00000 0.00000 ; methylguanidinium ion
5134 5133 5141 5142 3 33.20422 0.00000 -33.20422 0.00000 0.00000 0.00000 ; methylguanidinium ion
5135 5136 7403 7402 3 1.58992 4.76976 0.00000 -6.35968 0.00000 0.00000
5135 5136 7403 7404 3 1.58992 4.76976 0.00000 -6.35968 0.00000 0.00000
5135 5136 7403 7405 3 1.58992 4.76976 0.00000 -6.35968 0.00000 0.00000
5136 7403 7402 7401 3 1.78866 3.49154 0.53555 -5.81576 0.00000 0.00000
5136 7403 7402 7406 3 -1.26775 3.02085 1.74473 -3.49782 0.00000 0.00000
5141 5133 5134 5135 3 33.20422 0.00000 -33.20422 0.00000 0.00000 0.00000 ; methylguanidinium ion
5141 5133 5134 5139 3 20.50160 0.00000 -20.50160 0.00000 0.00000 0.00000 ; imides
5142 5122 5123 5124 3 33.20422 0.00000 -33.20422 0.00000 0.00000 0.00000 ; methylguanidinium ion
5142 5122 5123 5132 3 30.28798 -4.81160 -25.47638 0.00000 0.00000 0.00000 ; imides
5144 5145 6004 6003 3 1.58992 4.76976 0.00000 -6.35968 0.00000 0.00000
5144 5145 6004 6005 3 1.58992 4.76976 0.00000 -6.35968 0.00000 0.00000
5144 5145 6004 6006 3 1.58992 4.76976 0.00000 -6.35968 0.00000 0.00000
5145 6004 6003 6002 3 1.78866 3.49154 0.53555 -5.81576 0.00000 0.00000
5145 6004 6003 6007 3 -1.26775 3.02085 1.74473 -3.49782 0.00000 0.00000
5150 5151 5158 5159 3 30.28798 -4.81160 -25.47638 0.00000 0.00000 0.00000 ; imides
5150 5168 5169 5170 3 33.20422 0.00000 -33.20422 0.00000 0.00000 0.00000 ; methylguanidinium ion
5150 5168 5169 5174 3 20.50160 0.00000 -20.50160 0.00000 0.00000 0.00000 ; imides
5151 5150 5168 5167 3 30.28798 -4.81160 -25.47638 0.00000 0.00000 0.00000 ; imides
5151 5150 5168 5169 3 33.20422 0.00000 -33.20422 0.00000 0.00000 0.00000 ; methylguanidinium ion
5151 5158 5159 5160 3 33.20422 0.00000 -33.20422 0.00000 0.00000 0.00000 ; methylguanidinium ion
5151 5158 5159 5167 3 30.28798 -4.81160 -25.47638 0.00000 0.00000 0.00000 ; imides
5152 5151 5158 5159 3 33.20422 0.00000 -33.20422 0.00000 0.00000 0.00000 ; methylguanidinium ion
5153 1791 1790 1789 3 1.58992 4.76976 0.00000 -6.35968 0.00000 0.00000
5153 1791 1790 1792 3 1.58992 4.76976 0.00000 -6.35968 0.00000 0.00000
5153 1791 1790 1793 3 1.58992 4.76976 0.00000 -6.35968 0.00000 0.00000
5158 5151 5152 5153 3 33.20422 0.00000 -33.20422 0.00000 0.00000 0.00000 ; methylguanidinium ion
5158 5151 5152 5156 3 20.50160 0.00000 -20.50160 0.00000 0.00000 0.00000 ; imides
5158 5159 5167 5168 3 30.28798 -4.81160 -25.47638 0.00000 0.00000 0.00000 ; imides
5159 5167 5168 5150 3 30.28798 -4.81160 -25.47638 0.00000 0.00000 0.00000 ; imides
5159 5167 5168 5169 3 33.20422 0.00000 -33.20422 0.00000 0.00000 0.00000 ; methylguanidinium ion
5160 5159 5167 5168 3 33.20422 0.00000 -33.20422 0.00000 0.00000 0.00000 ; methylguanidinium ion
5161 5162 9904 9903 3 1.58992 4.76976 0.00000 -6.35968 0.00000 0.00000
5161 5162 9904 9905 3 1.58992 4.76976 0.00000 -6.35968 0.00000 0.00000
5161 5162 9904 9906 3 1.58992 4.76976 0.00000 -6.35968 0.00000 0.00000
5162 9904 9903 9902 3 1.78866 3.49154 0.53555 -5.81576 0.00000 0.00000
5162 9904 9903 9907 3 -1.26775 3.02085 1.74473 -3.49782 0.00000 0.00000
5167 5159 5160 5161 3 33.20422 0.00000 -33.20422 0.00000 0.00000 0.00000 ; methylguanidinium ion
5167 5159 5160 5165 3 20.50160 0.00000 -20.50160 0.00000 0.00000 0.00000 ; imides
5168 5150 5151 5152 3 33.20422 0.00000 -33.20422 0.00000 0.00000 0.00000 ; methylguanidinium ion
5168 5150 5151 5158 3 30.28798 -4.81160 -25.47638 0.00000 0.00000 0.00000 ; imides
5170 5171 6406 6405 3 1.58992 4.76976 0.00000 -6.35968 0.00000 0.00000
5170 5171 6406 6407 3 1.58992 4.76976 0.00000 -6.35968 0.00000 0.00000
5170 5171 6406 6408 3 1.58992 4.76976 0.00000 -6.35968 0.00000 0.00000
5171 6406 6405 6404 3 1.78866 3.49154 0.53555 -5.81576 0.00000 0.00000
5171 6406 6405 6409 3 -1.26775 3.02085 1.74473 -3.49782 0.00000 0.00000
5176 5177 5184 5185 3 30.28798 -4.81160 -25.47638 0.00000 0.00000 0.00000 ; imides
5176 5194 5195 5196 3 33.20422 0.00000 -33.20422 0.00000 0.00000 0.00000 ; methylguanidinium ion
5176 5194 5195 5200 3 20.50160 0.00000 -20.50160 0.00000 0.00000 0.00000 ; imides
5177 5176 5194 5193 3 30.28798 -4.81160 -25.47638 0.00000 0.00000 0.00000 ; imides
5177 5176 5194 5195 3 33.20422 0.00000 -33.20422 0.00000 0.00000 0.00000 ; methylguanidinium ion
5177 5184 5185 5186 3 33.20422 0.00000 -33.20422 0.00000 0.00000 0.00000 ; methylguanidinium ion
5177 5184 5185 5193 3 30.28798 -4.81160 -25.47638 0.00000 0.00000 0.00000 ; imides
5178 5177 5184 5185 3 33.20422 0.00000 -33.20422 0.00000 0.00000 0.00000 ; methylguanidinium ion
5179 1118 1117 1116 3 1.58992 4.76976 0.00000 -6.35968 0.00000 0.00000
5179 1118 1117 1119 3 1.58992 4.76976 0.00000 -6.35968 0.00000 0.00000
5179 1118 1117 1120 3 1.58992 4.76976 0.00000 -6.35968 0.00000 0.00000
5184 5177 5178 5179 3 33.20422 0.00000 -33.20422 0.00000 0.00000 0.00000 ; methylguanidinium ion
5184 5177 5178 5182 3 20.50160 0.00000 -20.50160 0.00000 0.00000 0.00000 ; imides
5184 5185 5193 5194 3 30.28798 -4.81160 -25.47638 0.00000 0.00000 0.00000 ; imides
5185 5193 5194 5176 3 30.28798 -4.81160 -25.47638 0.00000 0.00000 0.00000 ; imides
5185 5193 5194 5195 3 33.20422 0.00000 -33.20422 0.00000 0.00000 0.00000 ; methylguanidinium ion
5186 5185 5193 5194 3 33.20422 0.00000 -33.20422 0.00000 0.00000 0.00000 ; methylguanidinium ion
5187 5188 6712 6711 3 1.58992 4.76976 0.00000 -6.35968 0.00000 0.00000
5187 5188 6712 6713 3 1.58992 4.76976 0.00000 -6.35968 0.00000 0.00000
5187 5188 6712 6714 3 1.58992 4.76976 0.00000 -6.35968 0.00000 0.00000
5188 6712 6711 6710 3 1.78866 3.49154 0.53555 -5.81576 0.00000 0.00000
5188 6712 6711 6715 3 -1.26775 3.02085 1.74473 -3.49782 0.00000 0.00000
5193 5185 5186 5187 3 33.20422 0.00000 -33.20422 0.00000 0.00000 0.00000 ; methylguanidinium ion
5193 5185 5186 5191 3 20.50160 0.00000 -20.50160 0.00000 0.00000 0.00000 ; imides
5194 5176 5177 5178 3 33.20422 0.00000 -33.20422 0.00000 0.00000 0.00000 ; methylguanidinium ion
5194 5176 5177 5184 3 30.28798 -4.81160 -25.47638 0.00000 0.00000 0.00000 ; imides
5196 5197 7755 7754 3 1.58992 4.76976 0.00000 -6.35968 0.00000 0.00000
5196 5197 7755 7756 3 1.58992 4.76976 0.00000 -6.35968 0.00000 0.00000
5196 5197 7755 7757 3 1.58992 4.76976 0.00000 -6.35968 0.00000 0.00000
5197 7755 7754 7753 3 1.78866 3.49154 0.53555 -5.81576 0.00000 0.00000
5197 7755 7754 7758 3 -1.26775 3.02085 1.74473 -3.49782 0.00000 0.00000
5202 5203 5211 5212 3 30.28798 -4.81160 -25.47638 0.00000 0.00000 0.00000 ; imides
5202 5222 5223 5224 3 33.20422 0.00000 -33.20422 0.00000 0.00000 0.00000 ; methylguanidinium ion
5202 5222 5223 5228 3 20.50160 0.00000 -20.50160 0.00000 0.00000 0.00000 ; imides
5203 5202 5222 5221 3 30.28798 -4.81160 -25.47638 0.00000 0.00000 0.00000 ; imides
5203 5202 5222 5223 3 33.20422 0.00000 -33.20422 0.00000 0.00000 0.00000 ; methylguanidinium ion
5203 5211 5212 5213 3 33.20422 0.00000 -33.20422 0.00000 0.00000 0.00000 ; methylguanidinium ion
5203 5211 5212 5221 3 30.28798 -4.81160 -25.47638 0.00000 0.00000 0.00000 ; imides
5204 5203 5211 5212 3 33.20422 0.00000 -33.20422 0.00000 0.00000 0.00000 ; methylguanidinium ion
5205 5206 8549 8548 3 1.58992 4.76976 0.00000 -6.35968 0.00000 0.00000
5205 5206 8549 8550 3 1.58992 4.76976 0.00000 -6.35968 0.00000 0.00000
5205 5206 8549 8551 3 1.58992 4.76976 0.00000 -6.35968 0.00000 0.00000
5206 8549 8548 8547 3 1.78866 3.49154 0.53555 -5.81576 0.00000 0.00000
5206 8549 8548 8552 3 -1.26775 3.02085 1.74473 -3.49782 0.00000 0.00000
5211 5203 5204 5205 3 33.20422 0.00000 -33.20422 0.00000 0.00000 0.00000 ; methylguanidinium ion
5211 5203 5204 5209 3 20.50160 0.00000 -20.50160 0.00000 0.00000 0.00000 ; imides
5211 5212 5221 5222 3 30.28798 -4.81160 -25.47638 0.00000 0.00000 0.00000 ; imides
5212 5221 5222 5202 3 30.28798 -4.81160 -25.47638 0.00000 0.00000 0.00000 ; imides
5212 5221 5222 5223 3 33.20422 0.00000 -33.20422 0.00000 0.00000 0.00000 ; methylguanidinium ion
5213 5212 5221 5222 3 33.20422 0.00000 -33.20422 0.00000 0.00000 0.00000 ; methylguanidinium ion
5221 5212 5213 5214 3 33.20422 0.00000 -33.20422 0.00000 0.00000 0.00000 ; methylguanidinium ion
5221 5212 5213 5219 3 20.50160 0.00000 -20.50160 0.00000 0.00000 0.00000 ; imides
5222 5202 5203 5204 3 33.20422 0.00000 -33.20422 0.00000 0.00000 0.00000 ; methylguanidinium ion
5222 5202 5203 5211 3 30.28798 -4.81160 -25.47638 0.00000 0.00000 0.00000 ; imides
5224 5225 10110 10109 3 1.58992 4.76976 0.00000 -6.35968 0.00000 0.00000
5224 5225 10110 10111 3 1.58992 4.76976 0.00000 -6.35968 0.00000 0.00000
5224 5225 10110 10112 3 1.58992 4.76976 0.00000 -6.35968 0.00000 0.00000
5225 10110 10109 10108 3 1.78866 3.49154 0.53555 -5.81576 0.00000 0.00000
5225 10110 10109 10113 3 -1.26775 3.02085 1.74473 -3.49782 0.00000 0.00000
5230 5231 5238 5239 3 30.28798 -4.81160 -25.47638 0.00000 0.00000 0.00000 ; imides
5230 5248 5249 5250 3 33.20422 0.00000 -33.20422 0.00000 0.00000 0.00000 ; methylguanidinium ion
5230 5248 5249 5253 3 20.50160 0.00000 -20.50160 0.00000 0.00000 0.00000 ; imides
5231 5230 5248 5247 3 30.28798 -4.81160 -25.47638 0.00000 0.00000 0.00000 ; imides
5231 5230 5248 5249 3 33.20422 0.00000 -33.20422 0.00000 0.00000 0.00000 ; methylguanidinium ion
5231 5238 5239 5240 3 33.20422 0.00000 -33.20422 0.00000 0.00000 0.00000 ; methylguanidinium ion
5231 5238 5239 5247 3 30.28798 -4.81160 -25.47638 0.00000 0.00000 0.00000 ; imides
5232 5231 5238 5239 3 33.20422 0.00000 -33.20422 0.00000 0.00000 0.00000 ; methylguanidinium ion
5233 1216 1215 1214 3 1.58992 4.76976 0.00000 -6.35968 0.00000 0.00000
5233 1216 1215 1217 3 1.58992 4.76976 0.00000 -6.35968 0.00000 0.00000
5233 1216 1215 1218 3 1.58992 4.76976 0.00000 -6.35968 0.00000 0.00000
5238 5231 5232 5233 3 33.20422 0.00000 -33.20422 0.00000 0.00000 0.00000 ; methylguanidinium ion
5238 5231 5232 5236 3 20.50160 0.00000 -20.50160 0.00000 0.00000 0.00000 ; imides
5238 5239 5247 5248 3 30.28798 -4.81160 -25.47638 0.00000 0.00000 0.00000 ; imides
5239 5247 5248 5230 3 30.28798 -4.81160 -25.47638 0.00000 0.00000 0.00000 ; imides
5239 5247 5248 5249 3 33.20422 0.00000 -33.20422 0.00000 0.00000 0.00000 ; methylguanidinium ion
5240 5239 5247 5248 3 33.20422 0.00000 -33.20422 0.00000 0.00000 0.00000 ; methylguanidinium ion
5241 5242 10776 10775 3 1.58992 4.76976 0.00000 -6.35968 0.00000 0.00000
5241 5242 10776 10777 3 1.58992 4.76976 0.00000 -6.35968 0.00000 0.00000
5241 5242 10776 10778 3 1.58992 4.76976 0.00000 -6.35968 0.00000 0.00000
5242 10776 10775 10774 3 1.78866 3.49154 0.53555 -5.81576 0.00000 0.00000
5242 10776 10775 10779 3 -1.26775 3.02085 1.74473 -3.49782 0.00000 0.00000
5247 5239 5240 5241 3 33.20422 0.00000 -33.20422 0.00000 0.00000 0.00000 ; methylguanidinium ion
5247 5239 5240 5245 3 20.50160 0.00000 -20.50160 0.00000 0.00000 0.00000 ; imides
5248 5230 5231 5232 3 33.20422 0.00000 -33.20422 0.00000 0.00000 0.00000 ; methylguanidinium ion
5248 5230 5231 5238 3 30.28798 -4.81160 -25.47638 0.00000 0.00000 0.00000 ; imides
5250 3876 3875 3874 3 1.58992 4.76976 0.00000 -6.35968 0.00000 0.00000
5250 3876 3875 3877 3 1.58992 4.76976 0.00000 -6.35968 0.00000 0.00000
5250 3876 3875 3878 3 1.58992 4.76976 0.00000 -6.35968 0.00000 0.00000
5255 5256 5265 5266 3 30.28798 -4.81160 -25.47638 0.00000 0.00000 0.00000 ; imides
5255 5275 5276 5277 3 33.20422 0.00000 -33.20422 0.00000 0.00000 0.00000 ; methylguanidinium ion
5255 5275 5276 5281 3 20.50160 0.00000 -20.50160 0.00000 0.00000 0.00000 ; imides
5256 5255 5275 5274 3 30.28798 -4.81160 -25.47638 0.00000 0.00000 0.00000 ; imides
5256 5255 5275 5276 3 33.20422 0.00000 -33.20422 0.00000 0.00000 0.00000 ; methylguanidinium ion
5256 5265 5266 5267 3 33.20422 0.00000 -33.20422 0.00000 0.00000 0.00000 ; methylguanidinium ion
5256 5265 5266 5274 3 30.28798 -4.81160 -25.47638 0.00000 0.00000 0.00000 ; imides
5257 5256 5265 5266 3 33.20422 0.00000 -33.20422 0.00000 0.00000 0.00000 ; methylguanidinium ion
5265 5256 5257 5258 3 33.20422 0.00000 -33.20422 0.00000 0.00000 0.00000 ; methylguanidinium ion
5265 5256 5257 5263 3 20.50160 0.00000 -20.50160 0.00000 0.00000 0.00000 ; imides
5265 5266 5274 5275 3 30.28798 -4.81160 -25.47638 0.00000 0.00000 0.00000 ; imides
5266 5274 5275 5255 3 30.28798 -4.81160 -25.47638 0.00000 0.00000 0.00000 ; imides
5266 5274 5275 5276 3 33.20422 0.00000 -33.20422 0.00000 0.00000 0.00000 ; methylguanidinium ion
5267 5266 5274 5275 3 33.20422 0.00000 -33.20422 0.00000 0.00000 0.00000 ; methylguanidinium ion
5268 5269 9233 9232 3 1.58992 4.76976 0.00000 -6.35968 0.00000 0.00000
5268 5269 9233 9234 3 1.58992 4.76976 0.00000 -6.35968 0.00000 0.00000
5268 5269 9233 9235 3 1.58992 4.76976 0.00000 -6.35968 0.00000 0.00000
5269 9233 9232 9231 3 1.78866 3.49154 0.53555 -5.81576 0.00000 0.00000
5269 9233 9232 9236 3 -1.26775 3.02085 1.74473 -3.49782 0.00000 0.00000
5274 5266 5267 5268 3 33.20422 0.00000 -33.20422 0.00000 0.00000 0.00000 ; methylguanidinium ion
5274 5266 5267 5272 3 20.50160 0.00000 -20.50160 0.00000 0.00000 0.00000 ; imides
5275 5255 5256 5257 3 33.20422 0.00000 -33.20422 0.00000 0.00000 0.00000 ; methylguanidinium ion
5275 5255 5256 5265 3 30.28798 -4.81160 -25.47638 0.00000 0.00000 0.00000 ; imides
5277 5278 5581 5580 3 1.58992 4.76976 0.00000 -6.35968 0.00000 0.00000
5277 5278 5581 5582 3 1.58992 4.76976 0.00000 -6.35968 0.00000 0.00000
5277 5278 5581 5583 3 1.58992 4.76976 0.00000 -6.35968 0.00000 0.00000
5278 5581 5580 5579 3 1.78866 3.49154 0.53555 -5.81576 0.00000 0.00000
5278 5581 5580 5584 3 -1.26775 3.02085 1.74473 -3.49782 0.00000 0.00000
5283 5284 5291 5292 3 30.28798 -4.81160 -25.47638 0.00000 0.00000 0.00000 ; imides
5283 5301 5302 5303 3 33.20422 0.00000 -33.20422 0.00000 0.00000 0.00000 ; methylguanidinium ion
5283 5301 5302 5306 3 20.50160 0.00000 -20.50160 0.00000 0.00000 0.00000 ; imides
5284 5283 5301 5300 3 30.28798 -4.81160 -25.47638 0.00000 0.00000 0.00000 ; imides
5284 5283 5301 5302 3 33.20422 0.00000 -33.20422 0.00000 0.00000 0.00000 ; methylguanidinium ion
5284 5291 5292 5293 3 33.20422 0.00000 -33.20422 0.00000 0.00000 0.00000 ; methylguanidinium ion
5284 5291 5292 5300 3 30.28798 -4.81160 -25.47638 0.00000 0.00000 0.00000 ; imides
5285 5284 5291 5292 3 33.20422 0.00000 -33.20422 0.00000 0.00000 0.00000 ; methylguanidinium ion
5286 3630 3629 3628 3 1.58992 4.76976 0.00000 -6.35968 0.00000 0.00000
5286 3630 3629 3631 3 1.58992 4.76976 0.00000 -6.35968 0.00000 0.00000
5286 3630 3629 3632 3 1.58992 4.76976 0.00000 -6.35968 0.00000 0.00000
5291 5284 5285 5286 3 33.20422 0.00000 -33.20422 0.00000 0.00000 0.00000 ; methylguanidinium ion
5291 5284 5285 5289 3 20.50160 0.00000 -20.50160 0.00000 0.00000 0.00000 ; imides
5291 5292 5300 5301 3 30.28798 -4.81160 -25.47638 0.00000 0.00000 0.00000 ; imides
5292 5300 5301 5283 3 30.28798 -4.81160 -25.47638 0.00000 0.00000 0.00000 ; imides
5292 5300 5301 5302 3 33.20422 0.00000 -33.20422 0.00000 0.00000 0.00000 ; methylguanidinium ion
5293 5292 5300 5301 3 33.20422 0.00000 -33.20422 0.00000 0.00000 0.00000 ; methylguanidinium ion
5294 5295 8921 8920 3 1.58992 4.76976 0.00000 -6.35968 0.00000 0.00000
5294 5295 8921 8922 3 1.58992 4.76976 0.00000 -6.35968 0.00000 0.00000
5294 5295 8921 8923 3 1.58992 4.76976 0.00000 -6.35968 0.00000 0.00000
5295 8921 8920 8919 3 1.78866 3.49154 0.53555 -5.81576 0.00000 0.00000
5295 8921 8920 8924 3 -1.26775 3.02085 1.74473 -3.49782 0.00000 0.00000
5300 5292 5293 5294 3 33.20422 0.00000 -33.20422 0.00000 0.00000 0.00000 ; methylguanidinium ion
5300 5292 5293 5298 3 20.50160 0.00000 -20.50160 0.00000 0.00000 0.00000 ; imides
5301 5283 5284 5285 3 33.20422 0.00000 -33.20422 0.00000 0.00000 0.00000 ; methylguanidinium ion
5301 5283 5284 5291 3 30.28798 -4.81160 -25.47638 0.00000 0.00000 0.00000 ; imides
5303 3483 3482 3481 3 1.58992 4.76976 0.00000 -6.35968 0.00000 0.00000
5303 3483 3482 3484 3 1.58992 4.76976 0.00000 -6.35968 0.00000 0.00000
5303 3483 3482 3485 3 1.58992 4.76976 0.00000 -6.35968 0.00000 0.00000
5308 5309 5316 5317 3 30.28798 -4.81160 -25.47638 0.00000 0.00000 0.00000 ; imides
5308 5326 5327 5328 3 33.20422 0.00000 -33.20422 0.00000 0.00000 0.00000 ; methylguanidinium ion
5308 5326 5327 5333 3 20.50160 0.00000 -20.50160 0.00000 0.00000 0.00000 ; imides
5309 5308 5326 5325 3 30.28798 -4.81160 -25.47638 0.00000 0.00000 0.00000 ; imides
5309 5308 5326 5327 3 33.20422 0.00000 -33.20422 0.00000 0.00000 0.00000 ; methylguanidinium ion
5309 5316 5317 5318 3 33.20422 0.00000 -33.20422 0.00000 0.00000 0.00000 ; methylguanidinium ion
5309 5316 5317 5325 3 30.28798 -4.81160 -25.47638 0.00000 0.00000 0.00000 ; imides
5310 5309 5316 5317 3 33.20422 0.00000 -33.20422 0.00000 0.00000 0.00000 ; methylguanidinium ion
5311 4755 4754 4753 3 1.58992 4.76976 0.00000 -6.35968 0.00000 0.00000
5311 4755 4754 4756 3 1.58992 4.76976 0.00000 -6.35968 0.00000 0.00000
5311 4755 4754 4757 3 1.58992 4.76976 0.00000 -6.35968 0.00000 0.00000
5316 5309 5310 5311 3 33.20422 0.00000 -33.20422 0.00000 0.00000 0.00000 ; methylguanidinium ion
5316 5309 5310 5314 3 20.50160 0.00000 -20.50160 0.00000 0.00000 0.00000 ; imides
5316 5317 5325 5326 3 30.28798 -4.81160 -25.47638 0.00000 0.00000 0.00000 ; imides
5317 5325 5326 5308 3 30.28798 -4.81160 -25.47638 0.00000 0.00000 0.00000 ; imides
5317 5325 5326 5327 3 33.20422 0.00000 -33.20422 0.00000 0.00000 0.00000 ; methylguanidinium ion
5318 5317 5325 5326 3 33.20422 0.00000 -33.20422 0.00000 0.00000 0.00000 ; methylguanidinium ion
5319 5320 11068 11067 3 1.58992 4.76976 0.00000 -6.35968 0.00000 0.00000
5319 5320 11068 11069 3 1.58992 4.76976 0.00000 -6.35968 0.00000 0.00000
5319 5320 11068 11070 3 1.58992 4.76976 0.00000 -6.35968 0.00000 0.00000
5320 11068 11067 11066 3 1.78866 3.49154 0.53555 -5.81576 0.00000 0.00000
5320 11068 11067 11071 3 -1.26775 3.02085 1.74473 -3.49782 0.00000 0.00000
5325 5317 5318 5319 3 33.20422 0.00000 -33.20422 0.00000 0.00000 0.00000 ; methylguanidinium ion
5325 5317 5318 5323 3 20.50160 0.00000 -20.50160 0.00000 0.00000 0.00000 ; imides
5326 5308 5309 5310 3 33.20422 0.00000 -33.20422 0.00000 0.00000 0.00000 ; methylguanidinium ion
5326 5308 5309 5316 3 30.28798 -4.81160 -25.47638 0.00000 0.00000 0.00000 ; imides
5335 5336 5343 5344 3 30.28798 -4.81160 -25.47638 0.00000 0.00000 0.00000 ; imides
5335 5352 5353 5354 3 33.20422 0.00000 -33.20422 0.00000 0.00000 0.00000 ; methylguanidinium ion
5335 5352 5353 5357 3 20.50160 0.00000 -20.50160 0.00000 0.00000 0.00000 ; imides
5336 5335 5352 5351 3 30.28798 -4.81160 -25.47638 0.00000 0.00000 0.00000 ; imides
5336 5335 5352 5353 3 33.20422 0.00000 -33.20422 0.00000 0.00000 0.00000 ; methylguanidinium ion
5336 5343 5344 5345 3 33.20422 0.00000 -33.20422 0.00000 0.00000 0.00000 ; methylguanidinium ion
5336 5343 5344 5351 3 30.28798 -4.81160 -25.47638 0.00000 0.00000 0.00000 ; imides
5337 5336 5343 5344 3 33.20422 0.00000 -33.20422 0.00000 0.00000 0.00000 ; methylguanidinium ion
5338 2820 2819 2818 3 1.58992 4.76976 0.00000 -6.35968 0.00000 0.00000
5338 2820 2819 2821 3 1.58992 4.76976 0.00000 -6.35968 0.00000 0.00000
5338 2820 2819 2822 3 1.58992 4.76976 0.00000 -6.35968 0.00000 0.00000
5343 5336 5337 5338 3 33.20422 0.00000 -33.20422 0.00000 0.00000 0.00000 ; methylguanidinium ion
5343 5336 5337 5341 3 20.50160 0.00000 -20.50160 0.00000 0.00000 0.00000 ; imides
5343 5344 5351 5352 3 30.28798 -4.81160 -25.47638 0.00000 0.00000 0.00000 ; imides
5344 5351 5352 5335 3 30.28798 -4.81160 -25.47638 0.00000 0.00000 0.00000 ; imides
5344 5351 5352 5353 3 33.20422 0.00000 -33.20422 0.00000 0.00000 0.00000 ; methylguanidinium ion
5345 5344 5351 5352 3 33.20422 0.00000 -33.20422 0.00000 0.00000 0.00000 ; methylguanidinium ion
5346 2094 2093 2092 3 1.58992 4.76976 0.00000 -6.35968 0.00000 0.00000
5346 2094 2093 2095 3 1.58992 4.76976 0.00000 -6.35968 0.00000 0.00000
5346 2094 2093 2096 3 1.58992 4.76976 0.00000 -6.35968 0.00000 0.00000
5351 5344 5345 5346 3 33.20422 0.00000 -33.20422 0.00000 0.00000 0.00000 ; methylguanidinium ion
5351 5344 5345 5349 3 20.50160 0.00000 -20.50160 0.00000 0.00000 0.00000 ; imides
5352 5335 5336 5337 3 33.20422 0.00000 -33.20422 0.00000 0.00000 0.00000 ; methylguanidinium ion
5352 5335 5336 5343 3 30.28798 -4.81160 -25.47638 0.00000 0.00000 0.00000 ; imides
5354 4657 4656 4655 3 1.58992 4.76976 0.00000 -6.35968 0.00000 0.00000
5354 4657 4656 4658 3 1.58992 4.76976 0.00000 -6.35968 0.00000 0.00000
5354 4657 4656 4659 3 1.58992 4.76976 0.00000 -6.35968 0.00000 0.00000
5359 5360 5368 5369 3 30.28798 -4.81160 -25.47638 0.00000 0.00000 0.00000 ; imides
5359 5377 5378 5379 3 33.20422 0.00000 -33.20422 0.00000 0.00000 0.00000 ; methylguanidinium ion
5359 5377 5378 5384 3 20.50160 0.00000 -20.50160 0.00000 0.00000 0.00000 ; imides
5360 5359 5377 5376 3 30.28798 -4.81160 -25.47638 0.00000 0.00000 0.00000 ; imides
5360 5359 5377 5378 3 33.20422 0.00000 -33.20422 0.00000 0.00000 0.00000 ; methylguanidinium ion
5360 5368 5369 5370 3 33.20422 0.00000 -33.20422 0.00000 0.00000 0.00000 ; methylguanidinium ion
5360 5368 5369 5376 3 30.28798 -4.81160 -25.47638 0.00000 0.00000 0.00000 ; imides
5361 5360 5368 5369 3 33.20422 0.00000 -33.20422 0.00000 0.00000 0.00000 ; methylguanidinium ion
5362 5363 9402 9401 3 1.58992 4.76976 0.00000 -6.35968 0.00000 0.00000
5362 5363 9402 9403 3 1.58992 4.76976 0.00000 -6.35968 0.00000 0.00000
5362 5363 9402 9404 3 1.58992 4.76976 0.00000 -6.35968 0.00000 0.00000
5363 9402 9401 9400 3 1.78866 3.49154 0.53555 -5.81576 0.00000 0.00000
5363 9402 9401 9405 3 -1.26775 3.02085 1.74473 -3.49782 0.00000 0.00000
5368 5360 5361 5362 3 33.20422 0.00000 -33.20422 0.00000 0.00000 0.00000 ; methylguanidinium ion
5368 5360 5361 5366 3 20.50160 0.00000 -20.50160 0.00000 0.00000 0.00000 ; imides
5368 5369 5376 5377 3 30.28798 -4.81160 -25.47638 0.00000 0.00000 0.00000 ; imides
5369 5376 5377 5359 3 30.28798 -4.81160 -25.47638 0.00000 0.00000 0.00000 ; imides
5369 5376 5377 5378 3 33.20422 0.00000 -33.20422 0.00000 0.00000 0.00000 ; methylguanidinium ion
5370 5369 5376 5377 3 33.20422 0.00000 -33.20422 0.00000 0.00000 0.00000 ; methylguanidinium ion
5371 308 307 306 3 1.58992 4.76976 0.00000 -6.35968 0.00000 0.00000
5371 308 307 309 3 1.58992 4.76976 0.00000 -6.35968 0.00000 0.00000
5371 308 307 310 3 1.58992 4.76976 0.00000 -6.35968 0.00000 0.00000
5376 5369 5370 5371 3 33.20422 0.00000 -33.20422 0.00000 0.00000 0.00000 ; methylguanidinium ion
5376 5369 5370 5374 3 20.50160 0.00000 -20.50160 0.00000 0.00000 0.00000 ; imides
5377 5359 5360 5361 3 33.20422 0.00000 -33.20422 0.00000 0.00000 0.00000 ; methylguanidinium ion
5377 5359 5360 5368 3 30.28798 -4.81160 -25.47638 0.00000 0.00000 0.00000 ; imides
5386 5387 5396 5397 3 30.28798 -4.81160 -25.47638 0.00000 0.00000 0.00000 ; imides
5386 5405 5406 5407 3 33.20422 0.00000 -33.20422 0.00000 0.00000 0.00000 ; methylguanidinium ion
5386 5405 5406 5410 3 20.50160 0.00000 -20.50160 0.00000 0.00000 0.00000 ; imides
5387 5386 5405 5404 3 30.28798 -4.81160 -25.47638 0.00000 0.00000 0.00000 ; imides
5387 5386 5405 5406 3 33.20422 0.00000 -33.20422 0.00000 0.00000 0.00000 ; methylguanidinium ion
5387 5396 5397 5398 3 33.20422 0.00000 -33.20422 0.00000 0.00000 0.00000 ; methylguanidinium ion
5387 5396 5397 5404 3 30.28798 -4.81160 -25.47638 0.00000 0.00000 0.00000 ; imides
5388 5387 5396 5397 3 33.20422 0.00000 -33.20422 0.00000 0.00000 0.00000 ; methylguanidinium ion
5396 5387 5388 5389 3 33.20422 0.00000 -33.20422 0.00000 0.00000 0.00000 ; methylguanidinium ion
5396 5387 5388 5394 3 20.50160 0.00000 -20.50160 0.00000 0.00000 0.00000 ; imides
5396 5397 5404 5405 3 30.28798 -4.81160 -25.47638 0.00000 0.00000 0.00000 ; imides
5397 5404 5405 5386 3 30.28798 -4.81160 -25.47638 0.00000 0.00000 0.00000 ; imides
5397 5404 5405 5406 3 33.20422 0.00000 -33.20422 0.00000 0.00000 0.00000 ; methylguanidinium ion
5398 5397 5404 5405 3 33.20422 0.00000 -33.20422 0.00000 0.00000 0.00000 ; methylguanidinium ion
5399 3824 3823 3822 3 1.58992 4.76976 0.00000 -6.35968 0.00000 0.00000
5399 3824 3823 3825 3 1.58992 4.76976 0.00000 -6.35968 0.00000 0.00000
5399 3824 3823 3826 3 1.58992 4.76976 0.00000 -6.35968 0.00000 0.00000
5404 5397 5398 5399 3 33.20422 0.00000 -33.20422 0.00000 0.00000 0.00000 ; methylguanidinium ion
5404 5397 5398 5402 3 20.50160 0.00000 -20.50160 0.00000 0.00000 0.00000 ; imides
5405 5386 5387 5388 3 33.20422 0.00000 -33.20422 0.00000 0.00000 0.00000 ; methylguanidinium ion
5405 5386 5387 5396 3 30.28798 -4.81160 -25.47638 0.00000 0.00000 0.00000 ; imides
5407 1460 1459 1458 3 1.58992 4.76976 0.00000 -6.35968 0.00000 0.00000
5407 1460 1459 1461 3 1.58992 4.76976 0.00000 -6.35968 0.00000 0.00000
5407 1460 1459 1462 3 1.58992 4.76976 0.00000 -6.35968 0.00000 0.00000
5412 5413 5420 5421 3 30.28798 -4.81160 -25.47638 0.00000 0.00000 0.00000 ; imides
5412 5429 5430 5431 3 33.20422 0.00000 -33.20422 0.00000 0.00000 0.00000 ; methylguanidinium ion
5412 5429 5430 5435 3 20.50160 0.00000 -20.50160 0.00000 0.00000 0.00000 ; imides
5413 5412 5429 5428 3 30.28798 -4.81160 -25.47638 0.00000 0.00000 0.00000 ; imides
5413 5412 5429 5430 3 33.20422 0.00000 -33.20422 0.00000 0.00000 0.00000 ; methylguanidinium ion
5413 5420 5421 5422 3 33.20422 0.00000 -33.20422 0.00000 0.00000 0.00000 ; methylguanidinium ion
5413 5420 5421 5428 3 30.28798 -4.81160 -25.47638 0.00000 0.00000 0.00000 ; imides
5414 5413 5420 5421 3 33.20422 0.00000 -33.20422 0.00000 0.00000 0.00000 ; methylguanidinium ion
5415 4999 4998 4997 3 1.58992 4.76976 0.00000 -6.35968 0.00000 0.00000
5415 4999 4998 5000 3 1.58992 4.76976 0.00000 -6.35968 0.00000 0.00000
5415 4999 4998 5001 3 1.58992 4.76976 0.00000 -6.35968 0.00000 0.00000
5420 5413 5414 5415 3 33.20422 0.00000 -33.20422 0.00000 0.00000 0.00000 ; methylguanidinium ion
5420 5413 5414 5418 3 20.50160 0.00000 -20.50160 0.00000 0.00000 0.00000 ; imides
5420 5421 5428 5429 3 30.28798 -4.81160 -25.47638 0.00000 0.00000 0.00000 ; imides
5421 5428 5429 5412 3 30.28798 -4.81160 -25.47638 0.00000 0.00000 0.00000 ; imides
5421 5428 5429 5430 3 33.20422 0.00000 -33.20422 0.00000 0.00000 0.00000 ; methylguanidinium ion
5422 5421 5428 5429 3 33.20422 0.00000 -33.20422 0.00000 0.00000 0.00000 ; methylguanidinium ion
5423 1960 1959 1958 3 1.58992 4.76976 0.00000 -6.35968 0.00000 0.00000
5423 1960 1959 1961 3 1.58992 4.76976 0.00000 -6.35968 0.00000 0.00000
5423 1960 1959 1962 3 1.58992 4.76976 0.00000 -6.35968 0.00000 0.00000
5428 5421 5422 5423 3 33.20422 0.00000 -33.20422 0.00000 0.00000 0.00000 ; methylguanidinium ion
5428 5421 5422 5426 3 20.50160 0.00000 -20.50160 0.00000 0.00000 0.00000 ; imides
5429 5412 5413 5414 3 33.20422 0.00000 -33.20422 0.00000 0.00000 0.00000 ; methylguanidinium ion
5429 5412 5413 5420 3 30.28798 -4.81160 -25.47638 0.00000 0.00000 0.00000 ; imides
5431 5432 7907 7906 3 1.58992 4.76976 0.00000 -6.35968 0.00000 0.00000
5431 5432 7907 7908 3 1.58992 4.76976 0.00000 -6.35968 0.00000 0.00000
5431 5432 7907 7909 3 1.58992 4.76976 0.00000 -6.35968 0.00000 0.00000
5432 7907 7906 7905 3 1.78866 3.49154 0.53555 -5.81576 0.00000 0.00000
5432 7907 7906 7910 3 -1.26775 3.02085 1.74473 -3.49782 0.00000 0.00000
5437 5438 5446 5447 3 30.28798 -4.81160 -25.47638 0.00000 0.00000 0.00000 ; imides
5437 5456 5457 5458 3 33.20422 0.00000 -33.20422 0.00000 0.00000 0.00000 ; methylguanidinium ion
5437 5456 5457 5462 3 20.50160 0.00000 -20.50160 0.00000 0.00000 0.00000 ; imides
5438 5437 5456 5455 3 30.28798 -4.81160 -25.47638 0.00000 0.00000 0.00000 ; imides
5438 5437 5456 5457 3 33.20422 0.00000 -33.20422 0.00000 0.00000 0.00000 ; methylguanidinium ion
5438 5446 5447 5448 3 33.20422 0.00000 -33.20422 0.00000 0.00000 0.00000 ; methylguanidinium ion
5438 5446 5447 5455 3 30.28798 -4.81160 -25.47638 0.00000 0.00000 0.00000 ; imides
5439 5438 5446 5447 3 33.20422 0.00000 -33.20422 0.00000 0.00000 0.00000 ; methylguanidinium ion
5440 5441 11344 11343 3 1.58992 4.76976 0.00000 -6.35968 0.00000 0.00000
5440 5441 11344 11345 3 1.58992 4.76976 0.00000 -6.35968 0.00000 0.00000
5440 5441 11344 11346 3 1.58992 4.76976 0.00000 -6.35968 0.00000 0.00000
5441 11344 11343 11342 3 1.78866 3.49154 0.53555 -5.81576 0.00000 0.00000
5441 11344 11343 11347 3 -1.26775 3.02085 1.74473 -3.49782 0.00000 0.00000
5446 5438 5439 5440 3 33.20422 0.00000 -33.20422 0.00000 0.00000 0.00000 ; methylguanidinium ion
5446 5438 5439 5444 3 20.50160 0.00000 -20.50160 0.00000 0.00000 0.00000 ; imides
5446 5447 5455 5456 3 30.28798 -4.81160 -25.47638 0.00000 0.00000 0.00000 ; imides
5447 5455 5456 5437 3 30.28798 -4.81160 -25.47638 0.00000 0.00000 0.00000 ; imides
5447 5455 5456 5457 3 33.20422 0.00000 -33.20422 0.00000 0.00000 0.00000 ; methylguanidinium ion
5448 5447 5455 5456 3 33.20422 0.00000 -33.20422 0.00000 0.00000 0.00000 ; methylguanidinium ion
5449 5450 9032 9031 3 1.58992 4.76976 0.00000 -6.35968 0.00000 0.00000
5449 5450 9032 9033 3 1.58992 4.76976 0.00000 -6.35968 0.00000 0.00000
5449 5450 9032 9034 3 1.58992 4.76976 0.00000 -6.35968 0.00000 0.00000
5450 9032 9031 9030 3 1.78866 3.49154 0.53555 -5.81576 0.00000 0.00000
5450 9032 9031 9035 3 -1.26775 3.02085 1.74473 -3.49782 0.00000 0.00000
5455 5447 5448 5449 3 33.20422 0.00000 -33.20422 0.00000 0.00000 0.00000 ; methylguanidinium ion
5455 5447 5448 5453 3 20.50160 0.00000 -20.50160 0.00000 0.00000 0.00000 ; imides
5456 5437 5438 5439 3 33.20422 0.00000 -33.20422 0.00000 0.00000 0.00000 ; methylguanidinium ion
5456 5437 5438 5446 3 30.28798 -4.81160 -25.47638 0.00000 0.00000 0.00000 ; imides
5458 5459 7419 7418 3 1.58992 4.76976 0.00000 -6.35968 0.00000 0.00000
5458 5459 7419 7420 3 1.58992 4.76976 0.00000 -6.35968 0.00000 0.00000
5458 5459 7419 7421 3 1.58992 4.76976 0.00000 -6.35968 0.00000 0.00000
5459 7419 7418 7417 3 1.78866 3.49154 0.53555 -5.81576 0.00000 0.00000
5459 7419 7418 7422 3 -1.26775 3.02085 1.74473 -3.49782 0.00000 0.00000
5464 5465 5472 5473 3 30.28798 -4.81160 -25.47638 0.00000 0.00000 0.00000 ; imides
5464 5482 5483 5484 3 33.20422 0.00000 -33.20422 0.00000 0.00000 0.00000 ; methylguanidinium ion
5464 5482 5483 5488 3 20.50160 0.00000 -20.50160 0.00000 0.00000 0.00000 ; imides
5465 5464 5482 5481 3 30.28798 -4.81160 -25.47638 0.00000 0.00000 0.00000 ; imides
5465 5464 5482 5483 3 33.20422 0.00000 -33.20422 0.00000 0.00000 0.00000 ; methylguanidinium ion
5465 5472 5473 5474 3 33.20422 0.00000 -33.20422 0.00000 0.00000 0.00000 ; methylguanidinium ion
5465 5472 5473 5481 3 30.28798 -4.81160 -25.47638 0.00000 0.00000 0.00000 ; imides
5466 5465 5472 5473 3 33.20422 0.00000 -33.20422 0.00000 0.00000 0.00000 ; methylguanidinium ion
5467 3264 3263 3262 3 1.58992 4.76976 0.00000 -6.35968 0.00000 0.00000
5467 3264 3263 3265 3 1.58992 4.76976 0.00000 -6.35968 0.00000 0.00000
5467 3264 3263 3266 3 1.58992 4.76976 0.00000 -6.35968 0.00000 0.00000
5472 5465 5466 5467 3 33.20422 0.00000 -33.20422 0.00000 0.00000 0.00000 ; methylguanidinium ion
5472 5465 5466 5470 3 20.50160 0.00000 -20.50160 0.00000 0.00000 0.00000 ; imides
5472 5473 5481 5482 3 30.28798 -4.81160 -25.47638 0.00000 0.00000 0.00000 ; imides
5473 5481 5482 5464 3 30.28798 -4.81160 -25.47638 0.00000 0.00000 0.00000 ; imides
5473 5481 5482 5483 3 33.20422 0.00000 -33.20422 0.00000 0.00000 0.00000 ; methylguanidinium ion
5474 5473 5481 5482 3 33.20422 0.00000 -33.20422 0.00000 0.00000 0.00000 ; methylguanidinium ion
5475 5476 12107 12106 3 1.58992 4.76976 0.00000 -6.35968 0.00000 0.00000
5475 5476 12107 12108 3 1.58992 4.76976 0.00000 -6.35968 0.00000 0.00000
5475 5476 12107 12109 3 1.58992 4.76976 0.00000 -6.35968 0.00000 0.00000
5476 12107 12106 12105 3 1.78866 3.49154 0.53555 -5.81576 0.00000 0.00000
5476 12107 12106 12110 3 -1.26775 3.02085 1.74473 -3.49782 0.00000 0.00000
5481 5473 5474 5475 3 33.20422 0.00000 -33.20422 0.00000 0.00000 0.00000 ; methylguanidinium ion
5481 5473 5474 5479 3 20.50160 0.00000 -20.50160 0.00000 0.00000 0.00000 ; imides
5482 5464 5465 5466 3 33.20422 0.00000 -33.20422 0.00000 0.00000 0.00000 ; methylguanidinium ion
5482 5464 5465 5472 3 30.28798 -4.81160 -25.47638 0.00000 0.00000 0.00000 ; imides
5484 5485 11336 11335 3 1.58992 4.76976 0.00000 -6.35968 0.00000 0.00000
5484 5485 11336 11337 3 1.58992 4.76976 0.00000 -6.35968 0.00000 0.00000
5484 5485 11336 11338 3 1.58992 4.76976 0.00000 -6.35968 0.00000 0.00000
5485 11336 11335 11334 3 1.78866 3.49154 0.53555 -5.81576 0.00000 0.00000
5485 11336 11335 11339 3 -1.26775 3.02085 1.74473 -3.49782 0.00000 0.00000
5490 5491 5498 5499 3 30.28798 -4.81160 -25.47638 0.00000 0.00000 0.00000 ; imides
5490 5509 5510 5511 3 33.20422 0.00000 -33.20422 0.00000 0.00000 0.00000 ; methylguanidinium ion
5490 5509 5510 5514 3 20.50160 0.00000 -20.50160 0.00000 0.00000 0.00000 ; imides
5491 5490 5509 5508 3 30.28798 -4.81160 -25.47638 0.00000 0.00000 0.00000 ; imides
5491 5490 5509 5510 3 33.20422 0.00000 -33.20422 0.00000 0.00000 0.00000 ; methylguanidinium ion
5491 5498 5499 5500 3 33.20422 0.00000 -33.20422 0.00000 0.00000 0.00000 ; methylguanidinium ion
5491 5498 5499 5508 3 30.28798 -4.81160 -25.47638 0.00000 0.00000 0.00000 ; imides
5492 5491 5498 5499 3 33.20422 0.00000 -33.20422 0.00000 0.00000 0.00000 ; methylguanidinium ion
5493 2238 2237 2236 3 1.58992 4.76976 0.00000 -6.35968 0.00000 0.00000
5493 2238 2237 2239 3 1.58992 4.76976 0.00000 -6.35968 0.00000 0.00000
5493 2238 2237 2240 3 1.58992 4.76976 0.00000 -6.35968 0.00000 0.00000
5498 5491 5492 5493 3 33.20422 0.00000 -33.20422 0.00000 0.00000 0.00000 ; methylguanidinium ion
5498 5491 5492 5496 3 20.50160 0.00000 -20.50160 0.00000 0.00000 0.00000 ; imides
5498 5499 5508 5509 3 30.28798 -4.81160 -25.47638 0.00000 0.00000 0.00000 ; imides
5499 5508 5509 5490 3 30.28798 -4.81160 -25.47638 0.00000 0.00000 0.00000 ; imides
5499 5508 5509 5510 3 33.20422 0.00000 -33.20422 0.00000 0.00000 0.00000 ; methylguanidinium ion
5500 5499 5508 5509 3 33.20422 0.00000 -33.20422 0.00000 0.00000 0.00000 ; methylguanidinium ion
5508 5499 5500 5501 3 33.20422 0.00000 -33.20422 0.00000 0.00000 0.00000 ; methylguanidinium ion
5508 5499 5500 5506 3 20.50160 0.00000 -20.50160 0.00000 0.00000 0.00000 ; imides
5509 5490 5491 5492 3 33.20422 0.00000 -33.20422 0.00000 0.00000 0.00000 ; methylguanidinium ion
5509 5490 5491 5498 3 30.28798 -4.81160 -25.47638 0.00000 0.00000 0.00000 ; imides
5511 2489 2488 2487 3 1.58992 4.76976 0.00000 -6.35968 0.00000 0.00000
5511 2489 2488 2490 3 1.58992 4.76976 0.00000 -6.35968 0.00000 0.00000
5511 2489 2488 2491 3 1.58992 4.76976 0.00000 -6.35968 0.00000 0.00000
5516 5517 5524 5525 3 30.28798 -4.81160 -25.47638 0.00000 0.00000 0.00000 ; imides
5516 5534 5535 5536 3 33.20422 0.00000 -33.20422 0.00000 0.00000 0.00000 ; methylguanidinium ion
5516 5534 5535 5540 3 20.50160 0.00000 -20.50160 0.00000 0.00000 0.00000 ; imides
5517 5516 5534 5533 3 30.28798 -4.81160 -25.47638 0.00000 0.00000 0.00000 ; imides
5517 5516 5534 5535 3 33.20422 0.00000 -33.20422 0.00000 0.00000 0.00000 ; methylguanidinium ion
5517 5524 5525 5526 3 33.20422 0.00000 -33.20422 0.00000 0.00000 0.00000 ; methylguanidinium ion
5517 5524 5525 5533 3 30.28798 -4.81160 -25.47638 0.00000 0.00000 0.00000 ; imides
5518 5517 5524 5525 3 33.20422 0.00000 -33.20422 0.00000 0.00000 0.00000 ; methylguanidinium ion
5519 3674 3673 3672 3 1.58992 4.76976 0.00000 -6.35968 0.00000 0.00000
5519 3674 3673 3675 3 1.58992 4.76976 0.00000 -6.35968 0.00000 0.00000
5519 3674 3673 3676 3 1.58992 4.76976 0.00000 -6.35968 0.00000 0.00000
5524 5517 5518 5519 3 33.20422 0.00000 -33.20422 0.00000 0.00000 0.00000 ; methylguanidinium ion
5524 5517 5518 5522 3 20.50160 0.00000 -20.50160 0.00000 0.00000 0.00000 ; imides
5524 5525 5533 5534 3 30.28798 -4.81160 -25.47638 0.00000 0.00000 0.00000 ; imides
5525 5533 5534 5516 3 30.28798 -4.81160 -25.47638 0.00000 0.00000 0.00000 ; imides
5525 5533 5534 5535 3 33.20422 0.00000 -33.20422 0.00000 0.00000 0.00000 ; methylguanidinium ion
5526 5525 5533 5534 3 33.20422 0.00000 -33.20422 0.00000 0.00000 0.00000 ; methylguanidinium ion
5527 5528 7195 7194 3 1.58992 4.76976 0.00000 -6.35968 0.00000 0.00000
5527 5528 7195 7196 3 1.58992 4.76976 0.00000 -6.35968 0.00000 0.00000
5527 5528 7195 7197 3 1.58992 4.76976 0.00000 -6.35968 0.00000 0.00000
5528 7195 7194 7193 3 1.78866 3.49154 0.53555 -5.81576 0.00000 0.00000
5528 7195 7194 7198 3 -1.26775 3.02085 1.74473 -3.49782 0.00000 0.00000
5533 5525 5526 5527 3 33.20422 0.00000 -33.20422 0.00000 0.00000 0.00000 ; methylguanidinium ion
5533 5525 5526 5531 3 20.50160 0.00000 -20.50160 0.00000 0.00000 0.00000 ; imides
5534 5516 5517 5518 3 33.20422 0.00000 -33.20422 0.00000 0.00000 0.00000 ; methylguanidinium ion
5534 5516 5517 5524 3 30.28798 -4.81160 -25.47638 0.00000 0.00000 0.00000 ; imides
5536 5537 12724 12723 3 1.58992 4.76976 0.00000 -6.35968 0.00000 0.00000
5536 5537 12724 12725 3 1.58992 4.76976 0.00000 -6.35968 0.00000 0.00000
5536 5537 12724 12726 3 1.58992 4.76976 0.00000 -6.35968 0.00000 0.00000
5537 12724 12723 12722 3 1.78866 3.49154 0.53555 -5.81576 0.00000 0.00000
5537 12724 12723 12727 3 -1.26775 3.02085 1.74473 -3.49782 0.00000 0.00000
5542 5543 5550 5551 3 30.28798 -4.81160 -25.47638 0.00000 0.00000 0.00000 ; imides
5542 5561 5562 5563 3 33.20422 0.00000 -33.20422 0.00000 0.00000 0.00000 ; methylguanidinium ion
5542 5561 5562 5567 3 20.50160 0.00000 -20.50160 0.00000 0.00000 0.00000 ; imides
5543 5542 5561 5560 3 30.28798 -4.81160 -25.47638 0.00000 0.00000 0.00000 ; imides
5543 5542 5561 5562 3 33.20422 0.00000 -33.20422 0.00000 0.00000 0.00000 ; methylguanidinium ion
5543 5550 5551 5552 3 33.20422 0.00000 -33.20422 0.00000 0.00000 0.00000 ; methylguanidinium ion
5543 5550 5551 5560 3 30.28798 -4.81160 -25.47638 0.00000 0.00000 0.00000 ; imides
5544 5543 5550 5551 3 33.20422 0.00000 -33.20422 0.00000 0.00000 0.00000 ; methylguanidinium ion
5545 6 5 4 3 1.58992 4.76976 0.00000 -6.35968 0.00000 0.00000
5545 6 5 7 3 1.58992 4.76976 0.00000 -6.35968 0.00000 0.00000
5545 6 5 8 3 1.58992 4.76976 0.00000 -6.35968 0.00000 0.00000
5550 5543 5544 5545 3 33.20422 0.00000 -33.20422 0.00000 0.00000 0.00000 ; methylguanidinium ion
5550 5543 5544 5548 3 20.50160 0.00000 -20.50160 0.00000 0.00000 0.00000 ; imides
5550 5551 5560 5561 3 30.28798 -4.81160 -25.47638 0.00000 0.00000 0.00000 ; imides
5551 5560 5561 5542 3 30.28798 -4.81160 -25.47638 0.00000 0.00000 0.00000 ; imides
5551 5560 5561 5562 3 33.20422 0.00000 -33.20422 0.00000 0.00000 0.00000 ; methylguanidinium ion
5552 5551 5560 5561 3 33.20422 0.00000 -33.20422 0.00000 0.00000 0.00000 ; methylguanidinium ion
5560 5551 5552 5553 3 33.20422 0.00000 -33.20422 0.00000 0.00000 0.00000 ; methylguanidinium ion
5560 5551 5552 5558 3 20.50160 0.00000 -20.50160 0.00000 0.00000 0.00000 ; imides
5561 5542 5543 5544 3 33.20422 0.00000 -33.20422 0.00000 0.00000 0.00000 ; methylguanidinium ion
5561 5542 5543 5550 3 30.28798 -4.81160 -25.47638 0.00000 0.00000 0.00000 ; imides
5563 5564 9131 9130 3 1.58992 4.76976 0.00000 -6.35968 0.00000 0.00000
5563 5564 9131 9132 3 1.58992 4.76976 0.00000 -6.35968 0.00000 0.00000
5563 5564 9131 9133 3 1.58992 4.76976 0.00000 -6.35968 0.00000 0.00000
5564 9131 9130 9129 3 1.78866 3.49154 0.53555 -5.81576 0.00000 0.00000
5564 9131 9130 9134 3 -1.26775 3.02085 1.74473 -3.49782 0.00000 0.00000
5569 5570 5578 5579 3 30.28798 -4.81160 -25.47638 0.00000 0.00000 0.00000 ; imides
5569 5587 5588 5589 3 33.20422 0.00000 -33.20422 0.00000 0.00000 0.00000 ; methylguanidinium ion
5569 5587 5588 5592 3 20.50160 0.00000 -20.50160 0.00000 0.00000 0.00000 ; imides
5570 5569 5587 5586 3 30.28798 -4.81160 -25.47638 0.00000 0.00000 0.00000 ; imides
5570 5569 5587 5588 3 33.20422 0.00000 -33.20422 0.00000 0.00000 0.00000 ; methylguanidinium ion
5570 5578 5579 5580 3 33.20422 0.00000 -33.20422 0.00000 0.00000 0.00000 ; methylguanidinium ion
5570 5578 5579 5586 3 30.28798 -4.81160 -25.47638 0.00000 0.00000 0.00000 ; imides
5571 5570 5578 5579 3 33.20422 0.00000 -33.20422 0.00000 0.00000 0.00000 ; methylguanidinium ion
5572 5573 10341 10340 3 1.58992 4.76976 0.00000 -6.35968 0.00000 0.00000
5572 5573 10341 10342 3 1.58992 4.76976 0.00000 -6.35968 0.00000 0.00000
5572 5573 10341 10343 3 1.58992 4.76976 0.00000 -6.35968 0.00000 0.00000
5573 10341 10340 10339 3 1.78866 3.49154 0.53555 -5.81576 0.00000 0.00000
5573 10341 10340 10344 3 -1.26775 3.02085 1.74473 -3.49782 0.00000 0.00000
5578 5570 5571 5572 3 33.20422 0.00000 -33.20422 0.00000 0.00000 0.00000 ; methylguanidinium ion
5578 5570 5571 5576 3 20.50160 0.00000 -20.50160 0.00000 0.00000 0.00000 ; imides
5578 5579 5586 5587 3 30.28798 -4.81160 -25.47638 0.00000 0.00000 0.00000 ; imides
5579 5586 5587 5569 3 30.28798 -4.81160 -25.47638 0.00000 0.00000 0.00000 ; imides
5579 5586 5587 5588 3 33.20422 0.00000 -33.20422 0.00000 0.00000 0.00000 ; methylguanidinium ion
5580 5579 5586 5587 3 33.20422 0.00000 -33.20422 0.00000 0.00000 0.00000 ; methylguanidinium ion
5581 5278 5277 5276 3 1.58992 4.76976 0.00000 -6.35968 0.00000 0.00000
5581 5278 5277 5279 3 1.58992 4.76976 0.00000 -6.35968 0.00000 0.00000
5581 5278 5277 5280 3 1.58992 4.76976 0.00000 -6.35968 0.00000 0.00000
5586 5579 5580 5581 3 33.20422 0.00000 -33.20422 0.00000 0.00000 0.00000 ; methylguanidinium ion
5586 5579 5580 5584 3 20.50160 0.00000 -20.50160 0.00000 0.00000 0.00000 ; imides
5587 5569 5570 5571 3 33.20422 0.00000 -33.20422 0.00000 0.00000 0.00000 ; methylguanidinium ion
5587 5569 5570 5578 3 30.28798 -4.81160 -25.47638 0.00000 0.00000 0.00000 ; imides
5589 934 933 932 3 1.58992 4.76976 0.00000 -6.35968 0.00000 0.00000
5589 934 933 935 3 1.58992 4.76976 0.00000 -6.35968 0.00000 0.00000
5589 934 933 936 3 1.58992 4.76976 0.00000 -6.35968 0.00000 0.00000
5594 5595 5602 5603 3 30.28798 -4.81160 -25.47638 0.00000 0.00000 0.00000 ; imides
5594 5611 5612 5613 3 33.20422 0.00000 -33.20422 0.00000 0.00000 0.00000 ; methylguanidinium ion
5594 5611 5612 5616 3 20.50160 0.00000 -20.50160 0.00000 0.00000 0.00000 ; imides
5595 5594 5611 5610 3 30.28798 -4.81160 -25.47638 0.00000 0.00000 0.00000 ; imides
5595 5594 5611 5612 3 33.20422 0.00000 -33.20422 0.00000 0.00000 0.00000 ; methylguanidinium ion
5595 5602 5603 5604 3 33.20422 0.00000 -33.20422 0.00000 0.00000 0.00000 ; methylguanidinium ion
5595 5602 5603 5610 3 30.28798 -4.81160 -25.47638 0.00000 0.00000 0.00000 ; imides
5596 5595 5602 5603 3 33.20422 0.00000 -33.20422 0.00000 0.00000 0.00000 ; methylguanidinium ion
5597 943 942 941 3 1.58992 4.76976 0.00000 -6.35968 0.00000 0.00000
5597 943 942 944 3 1.58992 4.76976 0.00000 -6.35968 0.00000 0.00000
5597 943 942 945 3 1.58992 4.76976 0.00000 -6.35968 0.00000 0.00000
5602 5595 5596 5597 3 33.20422 0.00000 -33.20422 0.00000 0.00000 0.00000 ; methylguanidinium ion
5602 5595 5596 5600 3 20.50160 0.00000 -20.50160 0.00000 0.00000 0.00000 ; imides
5602 5603 5610 5611 3 30.28798 -4.81160 -25.47638 0.00000 0.00000 0.00000 ; imides
5603 5610 5611 5594 3 30.28798 -4.81160 -25.47638 0.00000 0.00000 0.00000 ; imides
5603 5610 5611 5612 3 33.20422 0.00000 -33.20422 0.00000 0.00000 0.00000 ; methylguanidinium ion
5604 5603 5610 5611 3 33.20422 0.00000 -33.20422 0.00000 0.00000 0.00000 ; methylguanidinium ion
5605 645 644 643 3 1.58992 4.76976 0.00000 -6.35968 0.00000 0.00000
5605 645 644 646 3 1.58992 4.76976 0.00000 -6.35968 0.00000 0.00000
5605 645 644 647 3 1.58992 4.76976 0.00000 -6.35968 0.00000 0.00000
5610 5603 5604 5605 3 33.20422 0.00000 -33.20422 0.00000 0.00000 0.00000 ; methylguanidinium ion
5610 5603 5604 5608 3 20.50160 0.00000 -20.50160 0.00000 0.00000 0.00000 ; imides
5611 5594 5595 5596 3 33.20422 0.00000 -33.20422 0.00000 0.00000 0.00000 ; methylguanidinium ion
5611 5594 5595 5602 3 30.28798 -4.81160 -25.47638 0.00000 0.00000 0.00000 ; imides
5613 4429 4428 4427 3 1.58992 4.76976 0.00000 -6.35968 0.00000 0.00000
5613 4429 4428 4430 3 1.58992 4.76976 0.00000 -6.35968 0.00000 0.00000
5613 4429 4428 4431 3 1.58992 4.76976 0.00000 -6.35968 0.00000 0.00000
5618 5619 5627 5628 3 30.28798 -4.81160 -25.47638 0.00000 0.00000 0.00000 ; imides
5618 5637 5638 5639 3 33.20422 0.00000 -33.20422 0.00000 0.00000 0.00000 ; methylguanidinium ion
5618 5637 5638 5642 3 20.50160 0.00000 -20.50160 0.00000 0.00000 0.00000 ; imides
5619 5618 5637 5636 3 30.28798 -4.81160 -25.47638 0.00000 0.00000 0.00000 ; imides
5619 5618 5637 5638 3 33.20422 0.00000 -33.20422 0.00000 0.00000 0.00000 ; methylguanidinium ion
5619 5627 5628 5629 3 33.20422 0.00000 -33.20422 0.00000 0.00000 0.00000 ; methylguanidinium ion
5619 5627 5628 5636 3 30.28798 -4.81160 -25.47638 0.00000 0.00000 0.00000 ; imides
5620 5619 5627 5628 3 33.20422 0.00000 -33.20422 0.00000 0.00000 0.00000 ; methylguanidinium ion
5621 5622 8948 8947 3 1.58992 4.76976 0.00000 -6.35968 0.00000 0.00000
5621 5622 8948 8949 3 1.58992 4.76976 0.00000 -6.35968 0.00000 0.00000
5621 5622 8948 8950 3 1.58992 4.76976 0.00000 -6.35968 0.00000 0.00000
5622 8948 8947 8946 3 1.78866 3.49154 0.53555 -5.81576 0.00000 0.00000
5622 8948 8947 8951 3 -1.26775 3.02085 1.74473 -3.49782 0.00000 0.00000
5627 5619 5620 5621 3 33.20422 0.00000 -33.20422 0.00000 0.00000 0.00000 ; methylguanidinium ion
5627 5619 5620 5625 3 20.50160 0.00000 -20.50160 0.00000 0.00000 0.00000 ; imides
5627 5628 5636 5637 3 30.28798 -4.81160 -25.47638 0.00000 0.00000 0.00000 ; imides
5628 5636 5637 5618 3 30.28798 -4.81160 -25.47638 0.00000 0.00000 0.00000 ; imides
5628 5636 5637 5638 3 33.20422 0.00000 -33.20422 0.00000 0.00000 0.00000 ; methylguanidinium ion
5629 5628 5636 5637 3 33.20422 0.00000 -33.20422 0.00000 0.00000 0.00000 ; methylguanidinium ion
5630 5631 7395 7394 3 1.58992 4.76976 0.00000 -6.35968 0.00000 0.00000
5630 5631 7395 7396 3 1.58992 4.76976 0.00000 -6.35968 0.00000 0.00000
5630 5631 7395 7397 3 1.58992 4.76976 0.00000 -6.35968 0.00000 0.00000
5631 7395 7394 7393 3 1.78866 3.49154 0.53555 -5.81576 0.00000 0.00000
5631 7395 7394 7398 3 -1.26775 3.02085 1.74473 -3.49782 0.00000 0.00000
5636 5628 5629 5630 3 33.20422 0.00000 -33.20422 0.00000 0.00000 0.00000 ; methylguanidinium ion
5636 5628 5629 5634 3 20.50160 0.00000 -20.50160 0.00000 0.00000 0.00000 ; imides
5637 5618 5619 5620 3 33.20422 0.00000 -33.20422 0.00000 0.00000 0.00000 ; methylguanidinium ion
5637 5618 5619 5627 3 30.28798 -4.81160 -25.47638 0.00000 0.00000 0.00000 ; imides
5639 3536 3535 3534 3 1.58992 4.76976 0.00000 -6.35968 0.00000 0.00000
5639 3536 3535 3537 3 1.58992 4.76976 0.00000 -6.35968 0.00000 0.00000
5639 3536 3535 3538 3 1.58992 4.76976 0.00000 -6.35968 0.00000 0.00000
5644 5645 5653 5654 3 30.28798 -4.81160 -25.47638 0.00000 0.00000 0.00000 ; imides
5644 5664 5665 5666 3 33.20422 0.00000 -33.20422 0.00000 0.00000 0.00000 ; methylguanidinium ion
5644 5664 5665 5669 3 20.50160 0.00000 -20.50160 0.00000 0.00000 0.00000 ; imides
5645 5644 5664 5663 3 30.28798 -4.81160 -25.47638 0.00000 0.00000 0.00000 ; imides
5645 5644 5664 5665 3 33.20422 0.00000 -33.20422 0.00000 0.00000 0.00000 ; methylguanidinium ion
5645 5653 5654 5655 3 33.20422 0.00000 -33.20422 0.00000 0.00000 0.00000 ; methylguanidinium ion
5645 5653 5654 5663 3 30.28798 -4.81160 -25.47638 0.00000 0.00000 0.00000 ; imides
5646 5645 5653 5654 3 33.20422 0.00000 -33.20422 0.00000 0.00000 0.00000 ; methylguanidinium ion
5647 5648 8777 8776 3 1.58992 4.76976 0.00000 -6.35968 0.00000 0.00000
5647 5648 8777 8778 3 1.58992 4.76976 0.00000 -6.35968 0.00000 0.00000
5647 5648 8777 8779 3 1.58992 4.76976 0.00000 -6.35968 0.00000 0.00000
5648 8777 8776 8775 3 1.78866 3.49154 0.53555 -5.81576 0.00000 0.00000
5648 8777 8776 8780 3 -1.26775 3.02085 1.74473 -3.49782 0.00000 0.00000
5653 5645 5646 5647 3 33.20422 0.00000 -33.20422 0.00000 0.00000 0.00000 ; methylguanidinium ion
5653 5645 5646 5651 3 20.50160 0.00000 -20.50160 0.00000 0.00000 0.00000 ; imides
5653 5654 5663 5664 3 30.28798 -4.81160 -25.47638 0.00000 0.00000 0.00000 ; imides
5654 5663 5664 5644 3 30.28798 -4.81160 -25.47638 0.00000 0.00000 0.00000 ; imides
5654 5663 5664 5665 3 33.20422 0.00000 -33.20422 0.00000 0.00000 0.00000 ; methylguanidinium ion
5655 5654 5663 5664 3 33.20422 0.00000 -33.20422 0.00000 0.00000 0.00000 ; methylguanidinium ion
5663 5654 5655 5656 3 33.20422 0.00000 -33.20422 0.00000 0.00000 0.00000 ; methylguanidinium ion
5663 5654 5655 5661 3 20.50160 0.00000 -20.50160 0.00000 0.00000 0.00000 ; imides
5664 5644 5645 5646 3 33.20422 0.00000 -33.20422 0.00000 0.00000 0.00000 ; methylguanidinium ion
5664 5644 5645 5653 3 30.28798 -4.81160 -25.47638 0.00000 0.00000 0.00000 ; imides
5666 4307 4306 4305 3 1.58992 4.76976 0.00000 -6.35968 0.00000 0.00000
5666 4307 4306 4308 3 1.58992 4.76976 0.00000 -6.35968 0.00000 0.00000
5666 4307 4306 4309 3 1.58992 4.76976 0.00000 -6.35968 0.00000 0.00000
5671 5672 5680 5681 3 30.28798 -4.81160 -25.47638 0.00000 0.00000 0.00000 ; imides
5671 5690 5691 5692 3 33.20422 0.00000 -33.20422 0.00000 0.00000 0.00000 ; methylguanidinium ion
5671 5690 5691 5696 3 20.50160 0.00000 -20.50160 0.00000 0.00000 0.00000 ; imides
5672 5671 5690 5689 3 30.28798 -4.81160 -25.47638 0.00000 0.00000 0.00000 ; imides
5672 5671 5690 5691 3 33.20422 0.00000 -33.20422 0.00000 0.00000 0.00000 ; methylguanidinium ion
5672 5680 5681 5682 3 33.20422 0.00000 -33.20422 0.00000 0.00000 0.00000 ; methylguanidinium ion
5672 5680 5681 5689 3 30.28798 -4.81160 -25.47638 0.00000 0.00000 0.00000 ; imides
5673 5672 5680 5681 3 33.20422 0.00000 -33.20422 0.00000 0.00000 0.00000 ; methylguanidinium ion
5674 5675 12131 12130 3 1.58992 4.76976 0.00000 -6.35968 0.00000 0.00000
5674 5675 12131 12132 3 1.58992 4.76976 0.00000 -6.35968 0.00000 0.00000
5674 5675 12131 12133 3 1.58992 4.76976 0.00000 -6.35968 0.00000 0.00000
5675 12131 12130 12129 3 1.78866 3.49154 0.53555 -5.81576 0.00000 0.00000
5675 12131 12130 12134 3 -1.26775 3.02085 1.74473 -3.49782 0.00000 0.00000
5680 5672 5673 5674 3 33.20422 0.00000 -33.20422 0.00000 0.00000 0.00000 ; methylguanidinium ion
5680 5672 5673 5678 3 20.50160 0.00000 -20.50160 0.00000 0.00000 0.00000 ; imides
5680 5681 5689 5690 3 30.28798 -4.81160 -25.47638 0.00000 0.00000 0.00000 ; imides
5681 5689 5690 5671 3 30.28798 -4.81160 -25.47638 0.00000 0.00000 0.00000 ; imides
5681 5689 5690 5691 3 33.20422 0.00000 -33.20422 0.00000 0.00000 0.00000 ; methylguanidinium ion
5682 5681 5689 5690 3 33.20422 0.00000 -33.20422 0.00000 0.00000 0.00000 ; methylguanidinium ion
5683 5684 10391 10390 3 1.58992 4.76976 0.00000 -6.35968 0.00000 0.00000
5683 5684 10391 10392 3 1.58992 4.76976 0.00000 -6.35968 0.00000 0.00000
5683 5684 10391 10393 3 1.58992 4.76976 0.00000 -6.35968 0.00000 0.00000
5684 10391 10390 10389 3 1.78866 3.49154 0.53555 -5.81576 0.00000 0.00000
5684 10391 10390 10394 3 -1.26775 3.02085 1.74473 -3.49782 0.00000 0.00000
5689 5681 5682 5683 3 33.20422 0.00000 -33.20422 0.00000 0.00000 0.00000 ; methylguanidinium ion
5689 5681 5682 5687 3 20.50160 0.00000 -20.50160 0.00000 0.00000 0.00000 ; imides
5690 5671 5672 5673 3 33.20422 0.00000 -33.20422 0.00000 0.00000 0.00000 ; methylguanidinium ion
5690 5671 5672 5680 3 30.28798 -4.81160 -25.47638 0.00000 0.00000 0.00000 ; imides
5692 5693 6135 6134 3 1.58992 4.76976 0.00000 -6.35968 0.00000 0.00000
5692 5693 6135 6136 3 1.58992 4.76976 0.00000 -6.35968 0.00000 0.00000
5692 5693 6135 6137 3 1.58992 4.76976 0.00000 -6.35968 0.00000 0.00000
5693 6135 6134 6133 3 1.78866 3.49154 0.53555 -5.81576 0.00000 0.00000
5693 6135 6134 6138 3 -1.26775 3.02085 1.74473 -3.49782 0.00000 0.00000
5698 5699 5707 5708 3 30.28798 -4.81160 -25.47638 0.00000 0.00000 0.00000 ; imides
5698 5716 5717 5718 3 33.20422 0.00000 -33.20422 0.00000 0.00000 0.00000 ; methylguanidinium ion
5698 5716 5717 5721 3 20.50160 0.00000 -20.50160 0.00000 0.00000 0.00000 ; imides
5699 5698 5716 5715 3 30.28798 -4.81160 -25.47638 0.00000 0.00000 0.00000 ; imides
5699 5698 5716 5717 3 33.20422 0.00000 -33.20422 0.00000 0.00000 0.00000 ; methylguanidinium ion
5699 5707 5708 5709 3 33.20422 0.00000 -33.20422 0.00000 0.00000 0.00000 ; methylguanidinium ion
5699 5707 5708 5715 3 30.28798 -4.81160 -25.47638 0.00000 0.00000 0.00000 ; imides
5700 5699 5707 5708 3 33.20422 0.00000 -33.20422 0.00000 0.00000 0.00000 ; methylguanidinium ion
5701 5702 12716 12715 3 1.58992 4.76976 0.00000 -6.35968 0.00000 0.00000
5701 5702 12716 12717 3 1.58992 4.76976 0.00000 -6.35968 0.00000 0.00000
5701 5702 12716 12718 3 1.58992 4.76976 0.00000 -6.35968 0.00000 0.00000
5702 12716 12715 12714 3 1.78866 3.49154 0.53555 -5.81576 0.00000 0.00000
5702 12716 12715 12719 3 -1.26775 3.02085 1.74473 -3.49782 0.00000 0.00000
5707 5699 5700 5701 3 33.20422 0.00000 -33.20422 0.00000 0.00000 0.00000 ; methylguanidinium ion
5707 5699 5700 5705 3 20.50160 0.00000 -20.50160 0.00000 0.00000 0.00000 ; imides
5707 5708 5715 5716 3 30.28798 -4.81160 -25.47638 0.00000 0.00000 0.00000 ; imides
5708 5715 5716 5698 3 30.28798 -4.81160 -25.47638 0.00000 0.00000 0.00000 ; imides
5708 5715 5716 5717 3 33.20422 0.00000 -33.20422 0.00000 0.00000 0.00000 ; methylguanidinium ion
5709 5708 5715 5716 3 33.20422 0.00000 -33.20422 0.00000 0.00000 0.00000 ; methylguanidinium ion
5710 1333 1332 1331 3 1.58992 4.76976 0.00000 -6.35968 0.00000 0.00000
5710 1333 1332 1334 3 1.58992 4.76976 0.00000 -6.35968 0.00000 0.00000
5710 1333 1332 1335 3 1.58992 4.76976 0.00000 -6.35968 0.00000 0.00000
5715 5708 5709 5710 3 33.20422 0.00000 -33.20422 0.00000 0.00000 0.00000 ; methylguanidinium ion
5715 5708 5709 5713 3 20.50160 0.00000 -20.50160 0.00000 0.00000 0.00000 ; imides
5716 5698 5699 5700 3 33.20422 0.00000 -33.20422 0.00000 0.00000 0.00000 ; methylguanidinium ion
5716 5698 5699 5707 3 30.28798 -4.81160 -25.47638 0.00000 0.00000 0.00000 ; imides
5718 1018 1017 1016 3 1.58992 4.76976 0.00000 -6.35968 0.00000 0.00000
5718 1018 1017 1019 3 1.58992 4.76976 0.00000 -6.35968 0.00000 0.00000
5718 1018 1017 1020 3 1.58992 4.76976 0.00000 -6.35968 0.00000 0.00000
5723 5724 5733 5734 3 30.28798 -4.81160 -25.47638 0.00000 0.00000 0.00000 ; imides
5723 5743 5744 5745 3 33.20422 0.00000 -33.20422 0.00000 0.00000 0.00000 ; methylguanidinium ion
5723 5743 5744 5749 3 20.50160 0.00000 -20.50160 0.00000 0.00000 0.00000 ; imides
5724 5723 5743 5742 3 30.28798 -4.81160 -25.47638 0.00000 0.00000 0.00000 ; imides
5724 5723 5743 5744 3 33.20422 0.00000 -33.20422 0.00000 0.00000 0.00000 ; methylguanidinium ion
5724 5733 5734 5735 3 33.20422 0.00000 -33.20422 0.00000 0.00000 0.00000 ; methylguanidinium ion
5724 5733 5734 5742 3 30.28798 -4.81160 -25.47638 0.00000 0.00000 0.00000 ; imides
5725 5724 5733 5734 3 33.20422 0.00000 -33.20422 0.00000 0.00000 0.00000 ; methylguanidinium ion
5733 5724 5725 5726 3 33.20422 0.00000 -33.20422 0.00000 0.00000 0.00000 ; methylguanidinium ion
5733 5724 5725 5731 3 20.50160 0.00000 -20.50160 0.00000 0.00000 0.00000 ; imides
5733 5734 5742 5743 3 30.28798 -4.81160 -25.47638 0.00000 0.00000 0.00000 ; imides
5734 5742 5743 5723 3 30.28798 -4.81160 -25.47638 0.00000 0.00000 0.00000 ; imides
5734 5742 5743 5744 3 33.20422 0.00000 -33.20422 0.00000 0.00000 0.00000 ; methylguanidinium ion
5735 5734 5742 5743 3 33.20422 0.00000 -33.20422 0.00000 0.00000 0.00000 ; methylguanidinium ion
5736 5737 6738 6737 3 1.58992 4.76976 0.00000 -6.35968 0.00000 0.00000
5736 5737 6738 6739 3 1.58992 4.76976 0.00000 -6.35968 0.00000 0.00000
5736 5737 6738 6740 3 1.58992 4.76976 0.00000 -6.35968 0.00000 0.00000
5737 6738 6737 6736 3 1.78866 3.49154 0.53555 -5.81576 0.00000 0.00000
5737 6738 6737 6741 3 -1.26775 3.02085 1.74473 -3.49782 0.00000 0.00000
5742 5734 5735 5736 3 33.20422 0.00000 -33.20422 0.00000 0.00000 0.00000 ; methylguanidinium ion
5742 5734 5735 5740 3 20.50160 0.00000 -20.50160 0.00000 0.00000 0.00000 ; imides
5743 5723 5724 5725 3 33.20422 0.00000 -33.20422 0.00000 0.00000 0.00000 ; methylguanidinium ion
5743 5723 5724 5733 3 30.28798 -4.81160 -25.47638 0.00000 0.00000 0.00000 ; imides
5745 5746 6746 6745 3 1.58992 4.76976 0.00000 -6.35968 0.00000 0.00000
5745 5746 6746 6747 3 1.58992 4.76976 0.00000 -6.35968 0.00000 0.00000
5745 5746 6746 6748 3 1.58992 4.76976 0.00000 -6.35968 0.00000 0.00000
5746 6746 6745 6744 3 1.78866 3.49154 0.53555 -5.81576 0.00000 0.00000
5746 6746 6745 6749 3 -1.26775 3.02085 1.74473 -3.49782 0.00000 0.00000
5751 5752 5760 5761 3 30.28798 -4.81160 -25.47638 0.00000 0.00000 0.00000 ; imides
5751 5770 5771 5772 3 33.20422 0.00000 -33.20422 0.00000 0.00000 0.00000 ; methylguanidinium ion
5751 5770 5771 5776 3 20.50160 0.00000 -20.50160 0.00000 0.00000 0.00000 ; imides
5752 5751 5770 5769 3 30.28798 -4.81160 -25.47638 0.00000 0.00000 0.00000 ; imides
5752 5751 5770 5771 3 33.20422 0.00000 -33.20422 0.00000 0.00000 0.00000 ; methylguanidinium ion
5752 5760 5761 5762 3 33.20422 0.00000 -33.20422 0.00000 0.00000 0.00000 ; methylguanidinium ion
5752 5760 5761 5769 3 30.28798 -4.81160 -25.47638 0.00000 0.00000 0.00000 ; imides
5753 5752 5760 5761 3 33.20422 0.00000 -33.20422 0.00000 0.00000 0.00000 ; methylguanidinium ion
5754 5755 9656 9655 3 1.58992 4.76976 0.00000 -6.35968 0.00000 0.00000
5754 5755 9656 9657 3 1.58992 4.76976 0.00000 -6.35968 0.00000 0.00000
5754 5755 9656 9658 3 1.58992 4.76976 0.00000 -6.35968 0.00000 0.00000
5755 9656 9655 9654 3 1.78866 3.49154 0.53555 -5.81576 0.00000 0.00000
5755 9656 9655 9659 3 -1.26775 3.02085 1.74473 -3.49782 0.00000 0.00000
5760 5752 5753 5754 3 33.20422 0.00000 -33.20422 0.00000 0.00000 0.00000 ; methylguanidinium ion
5760 5752 5753 5758 3 20.50160 0.00000 -20.50160 0.00000 0.00000 0.00000 ; imides
5760 5761 5769 5770 3 30.28798 -4.81160 -25.47638 0.00000 0.00000 0.00000 ; imides
5761 5769 5770 5751 3 30.28798 -4.81160 -25.47638 0.00000 0.00000 0.00000 ; imides
5761 5769 5770 5771 3 33.20422 0.00000 -33.20422 0.00000 0.00000 0.00000 ; methylguanidinium ion
5762 5761 5769 5770 3 33.20422 0.00000 -33.20422 0.00000 0.00000 0.00000 ; methylguanidinium ion
5763 5764 11360 11359 3 1.58992 4.76976 0.00000 -6.35968 0.00000 0.00000
5763 5764 11360 11361 3 1.58992 4.76976 0.00000 -6.35968 0.00000 0.00000
5763 5764 11360 11362 3 1.58992 4.76976 0.00000 -6.35968 0.00000 0.00000
5764 11360 11359 11358 3 1.78866 3.49154 0.53555 -5.81576 0.00000 0.00000
5764 11360 11359 11363 3 -1.26775 3.02085 1.74473 -3.49782 0.00000 0.00000
5769 5761 5762 5763 3 33.20422 0.00000 -33.20422 0.00000 0.00000 0.00000 ; methylguanidinium ion
5769 5761 5762 5767 3 20.50160 0.00000 -20.50160 0.00000 0.00000 0.00000 ; imides
5770 5751 5752 5753 3 33.20422 0.00000 -33.20422 0.00000 0.00000 0.00000 ; methylguanidinium ion
5770 5751 5752 5760 3 30.28798 -4.81160 -25.47638 0.00000 0.00000 0.00000 ; imides
5772 5773 9049 9048 3 1.58992 4.76976 0.00000 -6.35968 0.00000 0.00000
5772 5773 9049 9050 3 1.58992 4.76976 0.00000 -6.35968 0.00000 0.00000
5772 5773 9049 9051 3 1.58992 4.76976 0.00000 -6.35968 0.00000 0.00000
5773 9049 9048 9047 3 1.78866 3.49154 0.53555 -5.81576 0.00000 0.00000
5773 9049 9048 9052 3 -1.26775 3.02085 1.74473 -3.49782 0.00000 0.00000
5778 5779 5787 5788 3 30.28798 -4.81160 -25.47638 0.00000 0.00000 0.00000 ; imides
5778 5797 5798 5799 3 33.20422 0.00000 -33.20422 0.00000 0.00000 0.00000 ; methylguanidinium ion
5778 5797 5798 5802 3 20.50160 0.00000 -20.50160 0.00000 0.00000 0.00000 ; imides
5779 5778 5797 5796 3 30.28798 -4.81160 -25.47638 0.00000 0.00000 0.00000 ; imides
5779 5778 5797 5798 3 33.20422 0.00000 -33.20422 0.00000 0.00000 0.00000 ; methylguanidinium ion
5779 5787 5788 5789 3 33.20422 0.00000 -33.20422 0.00000 0.00000 0.00000 ; methylguanidinium ion
5779 5787 5788 5796 3 30.28798 -4.81160 -25.47638 0.00000 0.00000 0.00000 ; imides
5780 5779 5787 5788 3 33.20422 0.00000 -33.20422 0.00000 0.00000 0.00000 ; methylguanidinium ion
5781 5782 10994 10993 3 1.58992 4.76976 0.00000 -6.35968 0.00000 0.00000
5781 5782 10994 10995 3 1.58992 4.76976 0.00000 -6.35968 0.00000 0.00000
5781 5782 10994 10996 3 1.58992 4.76976 0.00000 -6.35968 0.00000 0.00000
5782 10994 10993 10992 3 1.78866 3.49154 0.53555 -5.81576 0.00000 0.00000
5782 10994 10993 10997 3 -1.26775 3.02085 1.74473 -3.49782 0.00000 0.00000
5787 5779 5780 5781 3 33.20422 0.00000 -33.20422 0.00000 0.00000 0.00000 ; methylguanidinium ion
5787 5779 5780 5785 3 20.50160 0.00000 -20.50160 0.00000 0.00000 0.00000 ; imides
5787 5788 5796 5797 3 30.28798 -4.81160 -25.47638 0.00000 0.00000 0.00000 ; imides
5788 5796 5797 5778 3 30.28798 -4.81160 -25.47638 0.00000 0.00000 0.00000 ; imides
5788 5796 5797 5798 3 33.20422 0.00000 -33.20422 0.00000 0.00000 0.00000 ; methylguanidinium ion
5789 5788 5796 5797 3 33.20422 0.00000 -33.20422 0.00000 0.00000 0.00000 ; methylguanidinium ion
5790 5791 12179 12178 3 1.58992 4.76976 0.00000 -6.35968 0.00000 0.00000
5790 5791 12179 12180 3 1.58992 4.76976 0.00000 -6.35968 0.00000 0.00000
5790 5791 12179 12181 3 1.58992 4.76976 0.00000 -6.35968 0.00000 0.00000
5791 12179 12178 12177 3 1.78866 3.49154 0.53555 -5.81576 0.00000 0.00000
5791 12179 12178 12182 3 -1.26775 3.02085 1.74473 -3.49782 0.00000 0.00000
5796 5788 5789 5790 3 33.20422 0.00000 -33.20422 0.00000 0.00000 0.00000 ; methylguanidinium ion
5796 5788 5789 5794 3 20.50160 0.00000 -20.50160 0.00000 0.00000 0.00000 ; imides
5797 5778 5779 5780 3 33.20422 0.00000 -33.20422 0.00000 0.00000 0.00000 ; methylguanidinium ion
5797 5778 5779 5787 3 30.28798 -4.81160 -25.47638 0.00000 0.00000 0.00000 ; imides
5799 1863 1862 1861 3 1.58992 4.76976 0.00000 -6.35968 0.00000 0.00000
5799 1863 1862 1864 3 1.58992 4.76976 0.00000 -6.35968 0.00000 0.00000
5799 1863 1862 1865 3 1.58992 4.76976 0.00000 -6.35968 0.00000 0.00000
5804 5805 5813 5814 3 30.28798 -4.81160 -25.47638 0.00000 0.00000 0.00000 ; imides
5804 5823 5824 5825 3 33.20422 0.00000 -33.20422 0.00000 0.00000 0.00000 ; methylguanidinium ion
5804 5823 5824 5828 3 20.50160 0.00000 -20.50160 0.00000 0.00000 0.00000 ; imides
5805 5804 5823 5822 3 30.28798 -4.81160 -25.47638 0.00000 0.00000 0.00000 ; imides
5805 5804 5823 5824 3 33.20422 0.00000 -33.20422 0.00000 0.00000 0.00000 ; methylguanidinium ion
5805 5813 5814 5815 3 33.20422 0.00000 -33.20422 0.00000 0.00000 0.00000 ; methylguanidinium ion
5805 5813 5814 5822 3 30.28798 -4.81160 -25.47638 0.00000 0.00000 0.00000 ; imides
5806 5805 5813 5814 3 33.20422 0.00000 -33.20422 0.00000 0.00000 0.00000 ; methylguanidinium ion
5807 5808 10617 10616 3 1.58992 4.76976 0.00000 -6.35968 0.00000 0.00000
5807 5808 10617 10618 3 1.58992 4.76976 0.00000 -6.35968 0.00000 0.00000
5807 5808 10617 10619 3 1.58992 4.76976 0.00000 -6.35968 0.00000 0.00000
5808 10617 10616 10615 3 1.78866 3.49154 0.53555 -5.81576 0.00000 0.00000
5808 10617 10616 10620 3 -1.26775 3.02085 1.74473 -3.49782 0.00000 0.00000
5813 5805 5806 5807 3 33.20422 0.00000 -33.20422 0.00000 0.00000 0.00000 ; methylguanidinium ion
5813 5805 5806 5811 3 20.50160 0.00000 -20.50160 0.00000 0.00000 0.00000 ; imides
5813 5814 5822 5823 3 30.28798 -4.81160 -25.47638 0.00000 0.00000 0.00000 ; imides
5814 5822 5823 5804 3 30.28798 -4.81160 -25.47638 0.00000 0.00000 0.00000 ; imides
5814 5822 5823 5824 3 33.20422 0.00000 -33.20422 0.00000 0.00000 0.00000 ; methylguanidinium ion
5815 5814 5822 5823 3 33.20422 0.00000 -33.20422 0.00000 0.00000 0.00000 ; methylguanidinium ion
5816 5817 6579 6578 3 1.58992 4.76976 0.00000 -6.35968 0.00000 0.00000
5816 5817 6579 6580 3 1.58992 4.76976 0.00000 -6.35968 0.00000 0.00000
5816 5817 6579 6581 3 1.58992 4.76976 0.00000 -6.35968 0.00000 0.00000
5817 6579 6578 6577 3 1.78866 3.49154 0.53555 -5.81576 0.00000 0.00000
5817 6579 6578 6582 3 -1.26775 3.02085 1.74473 -3.49782 0.00000 0.00000
5822 5814 5815 5816 3 33.20422 0.00000 -33.20422 0.00000 0.00000 0.00000 ; methylguanidinium ion
5822 5814 5815 5820 3 20.50160 0.00000 -20.50160 0.00000 0.00000 0.00000 ; imides
5823 5804 5805 5806 3 33.20422 0.00000 -33.20422 0.00000 0.00000 0.00000 ; methylguanidinium ion
5823 5804 5805 5813 3 30.28798 -4.81160 -25.47638 0.00000 0.00000 0.00000 ; imides
5825 3895 3894 3893 3 1.58992 4.76976 0.00000 -6.35968 0.00000 0.00000
5825 3895 3894 3896 3 1.58992 4.76976 0.00000 -6.35968 0.00000 0.00000
5825 3895 3894 3897 3 1.58992 4.76976 0.00000 -6.35968 0.00000 0.00000
5830 5831 5838 5839 3 30.28798 -4.81160 -25.47638 0.00000 0.00000 0.00000 ; imides
5830 5847 5848 5849 3 33.20422 0.00000 -33.20422 0.00000 0.00000 0.00000 ; methylguanidinium ion
5830 5847 5848 5853 3 20.50160 0.00000 -20.50160 0.00000 0.00000 0.00000 ; imides
5831 5830 5847 5846 3 30.28798 -4.81160 -25.47638 0.00000 0.00000 0.00000 ; imides
5831 5830 5847 5848 3 33.20422 0.00000 -33.20422 0.00000 0.00000 0.00000 ; methylguanidinium ion
5831 5838 5839 5840 3 33.20422 0.00000 -33.20422 0.00000 0.00000 0.00000 ; methylguanidinium ion
5831 5838 5839 5846 3 30.28798 -4.81160 -25.47638 0.00000 0.00000 0.00000 ; imides
5832 5831 5838 5839 3 33.20422 0.00000 -33.20422 0.00000 0.00000 0.00000 ; methylguanidinium ion
5833 4904 4903 4902 3 1.58992 4.76976 0.00000 -6.35968 0.00000 0.00000
5833 4904 4903 4905 3 1.58992 4.76976 0.00000 -6.35968 0.00000 0.00000
5833 4904 4903 4906 3 1.58992 4.76976 0.00000 -6.35968 0.00000 0.00000
5838 5831 5832 5833 3 33.20422 0.00000 -33.20422 0.00000 0.00000 0.00000 ; methylguanidinium ion
5838 5831 5832 5836 3 20.50160 0.00000 -20.50160 0.00000 0.00000 0.00000 ; imides
5838 5839 5846 5847 3 30.28798 -4.81160 -25.47638 0.00000 0.00000 0.00000 ; imides
5839 5846 5847 5830 3 30.28798 -4.81160 -25.47638 0.00000 0.00000 0.00000 ; imides
5839 5846 5847 5848 3 33.20422 0.00000 -33.20422 0.00000 0.00000 0.00000 ; methylguanidinium ion
5840 5839 5846 5847 3 33.20422 0.00000 -33.20422 0.00000 0.00000 0.00000 ; methylguanidinium ion
5841 4143 4142 4141 3 1.58992 4.76976 0.00000 -6.35968 0.00000 0.00000
5841 4143 4142 4144 3 1.58992 4.76976 0.00000 -6.35968 0.00000 0.00000
5841 4143 4142 4145 3 1.58992 4.76976 0.00000 -6.35968 0.00000 0.00000
5846 5839 5840 5841 3 33.20422 0.00000 -33.20422 0.00000 0.00000 0.00000 ; methylguanidinium ion
5846 5839 5840 5844 3 20.50160 0.00000 -20.50160 0.00000 0.00000 0.00000 ; imides
5847 5830 5831 5832 3 33.20422 0.00000 -33.20422 0.00000 0.00000 0.00000 ; methylguanidinium ion
5847 5830 5831 5838 3 30.28798 -4.81160 -25.47638 0.00000 0.00000 0.00000 ; imides
5849 5850 6917 6916 3 1.58992 4.76976 0.00000 -6.35968 0.00000 0.00000
5849 5850 6917 6918 3 1.58992 4.76976 0.00000 -6.35968 0.00000 0.00000
5849 5850 6917 6919 3 1.58992 4.76976 0.00000 -6.35968 0.00000 0.00000
5850 6917 6916 6915 3 1.78866 3.49154 0.53555 -5.81576 0.00000 0.00000
5850 6917 6916 6920 3 -1.26775 3.02085 1.74473 -3.49782 0.00000 0.00000
5855 5856 5863 5864 3 30.28798 -4.81160 -25.47638 0.00000 0.00000 0.00000 ; imides
5855 5873 5874 5875 3 33.20422 0.00000 -33.20422 0.00000 0.00000 0.00000 ; methylguanidinium ion
5855 5873 5874 5878 3 20.50160 0.00000 -20.50160 0.00000 0.00000 0.00000 ; imides
5856 5855 5873 5872 3 30.28798 -4.81160 -25.47638 0.00000 0.00000 0.00000 ; imides
5856 5855 5873 5874 3 33.20422 0.00000 -33.20422 0.00000 0.00000 0.00000 ; methylguanidinium ion
5856 5863 5864 5865 3 33.20422 0.00000 -33.20422 0.00000 0.00000 0.00000 ; methylguanidinium ion
5856 5863 5864 5872 3 30.28798 -4.81160 -25.47638 0.00000 0.00000 0.00000 ; imides
5857 5856 5863 5864 3 33.20422 0.00000 -33.20422 0.00000 0.00000 0.00000 ; methylguanidinium ion
5858 3940 3939 3938 3 1.58992 4.76976 0.00000 -6.35968 0.00000 0.00000
5858 3940 3939 3941 3 1.58992 4.76976 0.00000 -6.35968 0.00000 0.00000
5858 3940 3939 3942 3 1.58992 4.76976 0.00000 -6.35968 0.00000 0.00000
5863 5856 5857 5858 3 33.20422 0.00000 -33.20422 0.00000 0.00000 0.00000 ; methylguanidinium ion
5863 5856 5857 5861 3 20.50160 0.00000 -20.50160 0.00000 0.00000 0.00000 ; imides
5863 5864 5872 5873 3 30.28798 -4.81160 -25.47638 0.00000 0.00000 0.00000 ; imides
5864 5872 5873 5855 3 30.28798 -4.81160 -25.47638 0.00000 0.00000 0.00000 ; imides
5864 5872 5873 5874 3 33.20422 0.00000 -33.20422 0.00000 0.00000 0.00000 ; methylguanidinium ion
5865 5864 5872 5873 3 33.20422 0.00000 -33.20422 0.00000 0.00000 0.00000 ; methylguanidinium ion
5866 5867 9434 9433 3 1.58992 4.76976 0.00000 -6.35968 0.00000 0.00000
5866 5867 9434 9435 3 1.58992 4.76976 0.00000 -6.35968 0.00000 0.00000
5866 5867 9434 9436 3 1.58992 4.76976 0.00000 -6.35968 0.00000 0.00000
5867 9434 9433 9432 3 1.78866 3.49154 0.53555 -5.81576 0.00000 0.00000
5867 9434 9433 9437 3 -1.26775 3.02085 1.74473 -3.49782 0.00000 0.00000
5872 5864 5865 5866 3 33.20422 0.00000 -33.20422 0.00000 0.00000 0.00000 ; methylguanidinium ion
5872 5864 5865 5870 3 20.50160 0.00000 -20.50160 0.00000 0.00000 0.00000 ; imides
5873 5855 5856 5857 3 33.20422 0.00000 -33.20422 0.00000 0.00000 0.00000 ; methylguanidinium ion
5873 5855 5856 5863 3 30.28798 -4.81160 -25.47638 0.00000 0.00000 0.00000 ; imides
5875 3718 3717 3716 3 1.58992 4.76976 0.00000 -6.35968 0.00000 0.00000
5875 3718 3717 3719 3 1.58992 4.76976 0.00000 -6.35968 0.00000 0.00000
5875 3718 3717 3720 3 1.58992 4.76976 0.00000 -6.35968 0.00000 0.00000
5880 5881 5889 5890 3 30.28798 -4.81160 -25.47638 0.00000 0.00000 0.00000 ; imides
5880 5898 5899 5900 3 33.20422 0.00000 -33.20422 0.00000 0.00000 0.00000 ; methylguanidinium ion
5880 5898 5899 5903 3 20.50160 0.00000 -20.50160 0.00000 0.00000 0.00000 ; imides
5881 5880 5898 5897 3 30.28798 -4.81160 -25.47638 0.00000 0.00000 0.00000 ; imides
5881 5880 5898 5899 3 33.20422 0.00000 -33.20422 0.00000 0.00000 0.00000 ; methylguanidinium ion
5881 5889 5890 5891 3 33.20422 0.00000 -33.20422 0.00000 0.00000 0.00000 ; methylguanidinium ion
5881 5889 5890 5897 3 30.28798 -4.81160 -25.47638 0.00000 0.00000 0.00000 ; imides
5882 5881 5889 5890 3 33.20422 0.00000 -33.20422 0.00000 0.00000 0.00000 ; methylguanidinium ion
5883 5884 7245 7244 3 1.58992 4.76976 0.00000 -6.35968 0.00000 0.00000
5883 5884 7245 7246 3 1.58992 4.76976 0.00000 -6.35968 0.00000 0.00000
5883 5884 7245 7247 3 1.58992 4.76976 0.00000 -6.35968 0.00000 0.00000
5884 7245 7244 7243 3 1.78866 3.49154 0.53555 -5.81576 0.00000 0.00000
5884 7245 7244 7248 3 -1.26775 3.02085 1.74473 -3.49782 0.00000 0.00000
5889 5881 5882 5883 3 33.20422 0.00000 -33.20422 0.00000 0.00000 0.00000 ; methylguanidinium ion
5889 5881 5882 5887 3 20.50160 0.00000 -20.50160 0.00000 0.00000 0.00000 ; imides
5889 5890 5897 5898 3 30.28798 -4.81160 -25.47638 0.00000 0.00000 0.00000 ; imides
5890 5897 5898 5880 3 30.28798 -4.81160 -25.47638 0.00000 0.00000 0.00000 ; imides
5890 5897 5898 5899 3 33.20422 0.00000 -33.20422 0.00000 0.00000 0.00000 ; methylguanidinium ion
5891 5890 5897 5898 3 33.20422 0.00000 -33.20422 0.00000 0.00000 0.00000 ; methylguanidinium ion
5892 700 699 698 3 1.58992 4.76976 0.00000 -6.35968 0.00000 0.00000
5892 700 699 701 3 1.58992 4.76976 0.00000 -6.35968 0.00000 0.00000
5892 700 699 702 3 1.58992 4.76976 0.00000 -6.35968 0.00000 0.00000
5897 5890 5891 5892 3 33.20422 0.00000 -33.20422 0.00000 0.00000 0.00000 ; methylguanidinium ion
5897 5890 5891 5895 3 20.50160 0.00000 -20.50160 0.00000 0.00000 0.00000 ; imides
5898 5880 5881 5882 3 33.20422 0.00000 -33.20422 0.00000 0.00000 0.00000 ; methylguanidinium ion
5898 5880 5881 5889 3 30.28798 -4.81160 -25.47638 0.00000 0.00000 0.00000 ; imides
5900 2722 2721 2720 3 1.58992 4.76976 0.00000 -6.35968 0.00000 0.00000
5900 2722 2721 2723 3 1.58992 4.76976 0.00000 -6.35968 0.00000 0.00000
5900 2722 2721 2724 3 1.58992 4.76976 0.00000 -6.35968 0.00000 0.00000
5905 5906 5914 5915 3 30.28798 -4.81160 -25.47638 0.00000 0.00000 0.00000 ; imides
5905 5924 5925 5926 3 33.20422 0.00000 -33.20422 0.00000 0.00000 0.00000 ; methylguanidinium ion
5905 5924 5925 5930 3 20.50160 0.00000 -20.50160 0.00000 0.00000 0.00000 ; imides
5906 5905 5924 5923 3 30.28798 -4.81160 -25.47638 0.00000 0.00000 0.00000 ; imides
5906 5905 5924 5925 3 33.20422 0.00000 -33.20422 0.00000 0.00000 0.00000 ; methylguanidinium ion
5906 5914 5915 5916 3 33.20422 0.00000 -33.20422 0.00000 0.00000 0.00000 ; methylguanidinium ion
5906 5914 5915 5923 3 30.28798 -4.81160 -25.47638 0.00000 0.00000 0.00000 ; imides
5907 5906 5914 5915 3 33.20422 0.00000 -33.20422 0.00000 0.00000 0.00000 ; methylguanidinium ion
5908 5909 10260 10259 3 1.58992 4.76976 0.00000 -6.35968 0.00000 0.00000
5908 5909 10260 10261 3 1.58992 4.76976 0.00000 -6.35968 0.00000 0.00000
5908 5909 10260 10262 3 1.58992 4.76976 0.00000 -6.35968 0.00000 0.00000
5909 10260 10259 10258 3 1.78866 3.49154 0.53555 -5.81576 0.00000 0.00000
5909 10260 10259 10263 3 -1.26775 3.02085 1.74473 -3.49782 0.00000 0.00000
5914 5906 5907 5908 3 33.20422 0.00000 -33.20422 0.00000 0.00000 0.00000 ; methylguanidinium ion
5914 5906 5907 5912 3 20.50160 0.00000 -20.50160 0.00000 0.00000 0.00000 ; imides
5914 5915 5923 5924 3 30.28798 -4.81160 -25.47638 0.00000 0.00000 0.00000 ; imides
5915 5923 5924 5905 3 30.28798 -4.81160 -25.47638 0.00000 0.00000 0.00000 ; imides
5915 5923 5924 5925 3 33.20422 0.00000 -33.20422 0.00000 0.00000 0.00000 ; methylguanidinium ion
5916 5915 5923 5924 3 33.20422 0.00000 -33.20422 0.00000 0.00000 0.00000 ; methylguanidinium ion
5917 5918 11626 11625 3 1.58992 4.76976 0.00000 -6.35968 0.00000 0.00000
5917 5918 11626 11627 3 1.58992 4.76976 0.00000 -6.35968 0.00000 0.00000
5917 5918 11626 11628 3 1.58992 4.76976 0.00000 -6.35968 0.00000 0.00000
5918 11626 11625 11624 3 1.78866 3.49154 0.53555 -5.81576 0.00000 0.00000
5918 11626 11625 11629 3 -1.26775 3.02085 1.74473 -3.49782 0.00000 0.00000
5923 5915 5916 5917 3 33.20422 0.00000 -33.20422 0.00000 0.00000 0.00000 ; methylguanidinium ion
5923 5915 5916 5921 3 20.50160 0.00000 -20.50160 0.00000 0.00000 0.00000 ; imides
5924 5905 5906 5907 3 33.20422 0.00000 -33.20422 0.00000 0.00000 0.00000 ; methylguanidinium ion
5924 5905 5906 5914 3 30.28798 -4.81160 -25.47638 0.00000 0.00000 0.00000 ; imides
5926 5927 10317 10316 3 1.58992 4.76976 0.00000 -6.35968 0.00000 0.00000
5926 5927 10317 10318 3 1.58992 4.76976 0.00000 -6.35968 0.00000 0.00000
5926 5927 10317 10319 3 1.58992 4.76976 0.00000 -6.35968 0.00000 0.00000
5927 10317 10316 10315 3 1.78866 3.49154 0.53555 -5.81576 0.00000 0.00000
5927 10317 10316 10320 3 -1.26775 3.02085 1.74473 -3.49782 0.00000 0.00000
5932 5933 5940 5941 3 30.28798 -4.81160 -25.47638 0.00000 0.00000 0.00000 ; imides
5932 5950 5951 5952 3 33.20422 0.00000 -33.20422 0.00000 0.00000 0.00000 ; methylguanidinium ion
5932 5950 5951 5955 3 20.50160 0.00000 -20.50160 0.00000 0.00000 0.00000 ; imides
5933 5932 5950 5949 3 30.28798 -4.81160 -25.47638 0.00000 0.00000 0.00000 ; imides
5933 5932 5950 5951 3 33.20422 0.00000 -33.20422 0.00000 0.00000 0.00000 ; methylguanidinium ion
5933 5940 5941 5942 3 33.20422 0.00000 -33.20422 0.00000 0.00000 0.00000 ; methylguanidinium ion
5933 5940 5941 5949 3 30.28798 -4.81160 -25.47638 0.00000 0.00000 0.00000 ; imides
5934 5933 5940 5941 3 33.20422 0.00000 -33.20422 0.00000 0.00000 0.00000 ; methylguanidinium ion
5935 1190 1189 1188 3 1.58992 4.76976 0.00000 -6.35968 0.00000 0.00000
5935 1190 1189 1191 3 1.58992 4.76976 0.00000 -6.35968 0.00000 0.00000
5935 1190 1189 1192 3 1.58992 4.76976 0.00000 -6.35968 0.00000 0.00000
5940 5933 5934 5935 3 33.20422 0.00000 -33.20422 0.00000 0.00000 0.00000 ; methylguanidinium ion
5940 5933 5934 5938 3 20.50160 0.00000 -20.50160 0.00000 0.00000 0.00000 ; imides
5940 5941 5949 5950 3 30.28798 -4.81160 -25.47638 0.00000 0.00000 0.00000 ; imides
5941 5949 5950 5932 3 30.28798 -4.81160 -25.47638 0.00000 0.00000 0.00000 ; imides
5941 5949 5950 5951 3 33.20422 0.00000 -33.20422 0.00000 0.00000 0.00000 ; methylguanidinium ion
5942 5941 5949 5950 3 33.20422 0.00000 -33.20422 0.00000 0.00000 0.00000 ; methylguanidinium ion
5943 5944 6993 6992 3 1.58992 4.76976 0.00000 -6.35968 0.00000 0.00000
5943 5944 6993 6994 3 1.58992 4.76976 0.00000 -6.35968 0.00000 0.00000
5943 5944 6993 6995 3 1.58992 4.76976 0.00000 -6.35968 0.00000 0.00000
5944 6993 6992 6991 3 1.78866 3.49154 0.53555 -5.81576 0.00000 0.00000
5944 6993 6992 6996 3 -1.26775 3.02085 1.74473 -3.49782 0.00000 0.00000
5949 5941 5942 5943 3 33.20422 0.00000 -33.20422 0.00000 0.00000 0.00000 ; methylguanidinium ion
5949 5941 5942 5947 3 20.50160 0.00000 -20.50160 0.00000 0.00000 0.00000 ; imides
5950 5932 5933 5934 3 33.20422 0.00000 -33.20422 0.00000 0.00000 0.00000 ; methylguanidinium ion
5950 5932 5933 5940 3 30.28798 -4.81160 -25.47638 0.00000 0.00000 0.00000 ; imides
5952 1054 1053 1052 3 1.58992 4.76976 0.00000 -6.35968 0.00000 0.00000
5952 1054 1053 1055 3 1.58992 4.76976 0.00000 -6.35968 0.00000 0.00000
5952 1054 1053 1056 3 1.58992 4.76976 0.00000 -6.35968 0.00000 0.00000
5957 5958 5966 5967 3 30.28798 -4.81160 -25.47638 0.00000 0.00000 0.00000 ; imides
5957 5975 5976 5977 3 33.20422 0.00000 -33.20422 0.00000 0.00000 0.00000 ; methylguanidinium ion
5957 5975 5976 5981 3 20.50160 0.00000 -20.50160 0.00000 0.00000 0.00000 ; imides
5958 5957 5975 5974 3 30.28798 -4.81160 -25.47638 0.00000 0.00000 0.00000 ; imides
5958 5957 5975 5976 3 33.20422 0.00000 -33.20422 0.00000 0.00000 0.00000 ; methylguanidinium ion
5958 5966 5967 5968 3 33.20422 0.00000 -33.20422 0.00000 0.00000 0.00000 ; methylguanidinium ion
5958 5966 5967 5974 3 30.28798 -4.81160 -25.47638 0.00000 0.00000 0.00000 ; imides
5959 5958 5966 5967 3 33.20422 0.00000 -33.20422 0.00000 0.00000 0.00000 ; methylguanidinium ion
5960 5961 6253 6252 3 1.58992 4.76976 0.00000 -6.35968 0.00000 0.00000
5960 5961 6253 6254 3 1.58992 4.76976 0.00000 -6.35968 0.00000 0.00000
5960 5961 6253 6255 3 1.58992 4.76976 0.00000 -6.35968 0.00000 0.00000
5961 6253 6252 6251 3 1.78866 3.49154 0.53555 -5.81576 0.00000 0.00000
5961 6253 6252 6256 3 -1.26775 3.02085 1.74473 -3.49782 0.00000 0.00000
5966 5958 5959 5960 3 33.20422 0.00000 -33.20422 0.00000 0.00000 0.00000 ; methylguanidinium ion
5966 5958 5959 5964 3 20.50160 0.00000 -20.50160 0.00000 0.00000 0.00000 ; imides
5966 5967 5974 5975 3 30.28798 -4.81160 -25.47638 0.00000 0.00000 0.00000 ; imides
5967 5974 5975 5957 3 30.28798 -4.81160 -25.47638 0.00000 0.00000 0.00000 ; imides
5967 5974 5975 5976 3 33.20422 0.00000 -33.20422 0.00000 0.00000 0.00000 ; methylguanidinium ion
5968 5967 5974 5975 3 33.20422 0.00000 -33.20422 0.00000 0.00000 0.00000 ; methylguanidinium ion
5969 4350 4349 4348 3 1.58992 4.76976 0.00000 -6.35968 0.00000 0.00000
5969 4350 4349 4351 3 1.58992 4.76976 0.00000 -6.35968 0.00000 0.00000
5969 4350 4349 4352 3 1.58992 4.76976 0.00000 -6.35968 0.00000 0.00000
5974 5967 5968 5969 3 33.20422 0.00000 -33.20422 0.00000 0.00000 0.00000 ; methylguanidinium ion
5974 5967 5968 5972 3 20.50160 0.00000 -20.50160 0.00000 0.00000 0.00000 ; imides
5975 5957 5958 5959 3 33.20422 0.00000 -33.20422 0.00000 0.00000 0.00000 ; methylguanidinium ion
5975 5957 5958 5966 3 30.28798 -4.81160 -25.47638 0.00000 0.00000 0.00000 ; imides
5977 5978 10349 10348 3 1.58992 4.76976 0.00000 -6.35968 0.00000 0.00000
5977 5978 10349 10350 3 1.58992 4.76976 0.00000 -6.35968 0.00000 0.00000
5977 5978 10349 10351 3 1.58992 4.76976 0.00000 -6.35968 0.00000 0.00000
5978 10349 10348 10347 3 1.78866 3.49154 0.53555 -5.81576 0.00000 0.00000
5978 10349 10348 10352 3 -1.26775 3.02085 1.74473 -3.49782 0.00000 0.00000
5983 5984 5992 5993 3 30.28798 -4.81160 -25.47638 0.00000 0.00000 0.00000 ; imides
5983 6002 6003 6004 3 33.20422 0.00000 -33.20422 0.00000 0.00000 0.00000 ; methylguanidinium ion
5983 6002 6003 6007 3 20.50160 0.00000 -20.50160 0.00000 0.00000 0.00000 ; imides
5984 5983 6002 6001 3 30.28798 -4.81160 -25.47638 0.00000 0.00000 0.00000 ; imides
5984 5983 6002 6003 3 33.20422 0.00000 -33.20422 0.00000 0.00000 0.00000 ; methylguanidinium ion
5984 5992 5993 5994 3 33.20422 0.00000 -33.20422 0.00000 0.00000 0.00000 ; methylguanidinium ion
5984 5992 5993 6001 3 30.28798 -4.81160 -25.47638 0.00000 0.00000 0.00000 ; imides
5985 5984 5992 5993 3 33.20422 0.00000 -33.20422 0.00000 0.00000 0.00000 ; methylguanidinium ion
5986 5987 7840 7839 3 1.58992 4.76976 0.00000 -6.35968 0.00000 0.00000
5986 5987 7840 7841 3 1.58992 4.76976 0.00000 -6.35968 0.00000 0.00000
5986 5987 7840 7842 3 1.58992 4.76976 0.00000 -6.35968 0.00000 0.00000
5987 7840 7839 7838 3 1.78866 3.49154 0.53555 -5.81576 0.00000 0.00000
5987 7840 7839 7843 3 -1.26775 3.02085 1.74473 -3.49782 0.00000 0.00000
5992 5984 5985 5986 3 33.20422 0.00000 -33.20422 0.00000 0.00000 0.00000 ; methylguanidinium ion
5992 5984 5985 5990 3 20.50160 0.00000 -20.50160 0.00000 0.00000 0.00000 ; imides
5992 5993 6001 6002 3 30.28798 -4.81160 -25.47638 0.00000 0.00000 0.00000 ; imides
5993 6001 6002 5983 3 30.28798 -4.81160 -25.47638 0.00000 0.00000 0.00000 ; imides
5993 6001 6002 6003 3 33.20422 0.00000 -33.20422 0.00000 0.00000 0.00000 ; methylguanidinium ion
5994 5993 6001 6002 3 33.20422 0.00000 -33.20422 0.00000 0.00000 0.00000 ; methylguanidinium ion
5995 5996 8439 8438 3 1.58992 4.76976 0.00000 -6.35968 0.00000 0.00000
5995 5996 8439 8440 3 1.58992 4.76976 0.00000 -6.35968 0.00000 0.00000
5995 5996 8439 8441 3 1.58992 4.76976 0.00000 -6.35968 0.00000 0.00000
5996 8439 8438 8437 3 1.78866 3.49154 0.53555 -5.81576 0.00000 0.00000
5996 8439 8438 8442 3 -1.26775 3.02085 1.74473 -3.49782 0.00000 0.00000
6001 5993 5994 5995 3 33.20422 0.00000 -33.20422 0.00000 0.00000 0.00000 ; methylguanidinium ion
6001 5993 5994 5999 3 20.50160 0.00000 -20.50160 0.00000 0.00000 0.00000 ; imides
6002 5983 5984 5985 3 33.20422 0.00000 -33.20422 0.00000 0.00000 0.00000 ; methylguanidinium ion
6002 5983 5984 5992 3 30.28798 -4.81160 -25.47638 0.00000 0.00000 0.00000 ; imides
6004 5145 5144 5143 3 1.58992 4.76976 0.00000 -6.35968 0.00000 0.00000
6004 5145 5144 5146 3 1.58992 4.76976 0.00000 -6.35968 0.00000 0.00000
6004 5145 5144 5147 3 1.58992 4.76976 0.00000 -6.35968 0.00000 0.00000
6009 6010 6019 6020 3 30.28798 -4.81160 -25.47638 0.00000 0.00000 0.00000 ; imides
6009 6028 6029 6030 3 33.20422 0.00000 -33.20422 0.00000 0.00000 0.00000 ; methylguanidinium ion
6009 6028 6029 6033 3 20.50160 0.00000 -20.50160 0.00000 0.00000 0.00000 ; imides
6010 6009 6028 6027 3 30.28798 -4.81160 -25.47638 0.00000 0.00000 0.00000 ; imides
6010 6009 6028 6029 3 33.20422 0.00000 -33.20422 0.00000 0.00000 0.00000 ; methylguanidinium ion
6010 6019 6020 6021 3 33.20422 0.00000 -33.20422 0.00000 0.00000 0.00000 ; methylguanidinium ion
6010 6019 6020 6027 3 30.28798 -4.81160 -25.47638 0.00000 0.00000 0.00000 ; imides
6011 6010 6019 6020 3 33.20422 0.00000 -33.20422 0.00000 0.00000 0.00000 ; methylguanidinium ion
6019 6010 6011 6012 3 33.20422 0.00000 -33.20422 0.00000 0.00000 0.00000 ; methylguanidinium ion
6019 6010 6011 6017 3 20.50160 0.00000 -20.50160 0.00000 0.00000 0.00000 ; imides
6019 6020 6027 6028 3 30.28798 -4.81160 -25.47638 0.00000 0.00000 0.00000 ; imides
6020 6027 6028 6009 3 30.28798 -4.81160 -25.47638 0.00000 0.00000 0.00000 ; imides
6020 6027 6028 6029 3 33.20422 0.00000 -33.20422 0.00000 0.00000 0.00000 ; methylguanidinium ion
6021 6020 6027 6028 3 33.20422 0.00000 -33.20422 0.00000 0.00000 0.00000 ; methylguanidinium ion
6022 2660 2659 2658 3 1.58992 4.76976 0.00000 -6.35968 0.00000 0.00000
6022 2660 2659 2661 3 1.58992 4.76976 0.00000 -6.35968 0.00000 0.00000
6022 2660 2659 2662 3 1.58992 4.76976 0.00000 -6.35968 0.00000 0.00000
6027 6020 6021 6022 3 33.20422 0.00000 -33.20422 0.00000 0.00000 0.00000 ; methylguanidinium ion
6027 6020 6021 6025 3 20.50160 0.00000 -20.50160 0.00000 0.00000 0.00000 ; imides
6028 6009 6010 6011 3 33.20422 0.00000 -33.20422 0.00000 0.00000 0.00000 ; methylguanidinium ion
6028 6009 6010 6019 3 30.28798 -4.81160 -25.47638 0.00000 0.00000 0.00000 ; imides
6030 2032 2031 2030 3 1.58992 4.76976 0.00000 -6.35968 0.00000 0.00000
6030 2032 2031 2033 3 1.58992 4.76976 0.00000 -6.35968 0.00000 0.00000
6030 2032 2031 2034 3 1.58992 4.76976 0.00000 -6.35968 0.00000 0.00000
6035 6036 6043 6044 3 30.28798 -4.81160 -25.47638 0.00000 0.00000 0.00000 ; imides
6035 6053 6054 6055 3 33.20422 0.00000 -33.20422 0.00000 0.00000 0.00000 ; methylguanidinium ion
6035 6053 6054 6060 3 20.50160 0.00000 -20.50160 0.00000 0.00000 0.00000 ; imides
6036 6035 6053 6052 3 30.28798 -4.81160 -25.47638 0.00000 0.00000 0.00000 ; imides
6036 6035 6053 6054 3 33.20422 0.00000 -33.20422 0.00000 0.00000 0.00000 ; methylguanidinium ion
6036 6043 6044 6045 3 33.20422 0.00000 -33.20422 0.00000 0.00000 0.00000 ; methylguanidinium ion
6036 6043 6044 6052 3 30.28798 -4.81160 -25.47638 0.00000 0.00000 0.00000 ; imides
6037 6036 6043 6044 3 33.20422 0.00000 -33.20422 0.00000 0.00000 0.00000 ; methylguanidinium ion
6038 2598 2597 2596 3 1.58992 4.76976 0.00000 -6.35968 0.00000 0.00000
6038 2598 2597 2599 3 1.58992 4.76976 0.00000 -6.35968 0.00000 0.00000
6038 2598 2597 2600 3 1.58992 4.76976 0.00000 -6.35968 0.00000 0.00000
6043 6036 6037 6038 3 33.20422 0.00000 -33.20422 0.00000 0.00000 0.00000 ; methylguanidinium ion
6043 6036 6037 6041 3 20.50160 0.00000 -20.50160 0.00000 0.00000 0.00000 ; imides
6043 6044 6052 6053 3 30.28798 -4.81160 -25.47638 0.00000 0.00000 0.00000 ; imides
6044 6052 6053 6035 3 30.28798 -4.81160 -25.47638 0.00000 0.00000 0.00000 ; imides
6044 6052 6053 6054 3 33.20422 0.00000 -33.20422 0.00000 0.00000 0.00000 ; methylguanidinium ion
6045 6044 6052 6053 3 33.20422 0.00000 -33.20422 0.00000 0.00000 0.00000 ; methylguanidinium ion
6046 6047 7411 7410 3 1.58992 4.76976 0.00000 -6.35968 0.00000 0.00000
6046 6047 7411 7412 3 1.58992 4.76976 0.00000 -6.35968 0.00000 0.00000
6046 6047 7411 7413 3 1.58992 4.76976 0.00000 -6.35968 0.00000 0.00000
6047 7411 7410 7409 3 1.78866 3.49154 0.53555 -5.81576 0.00000 0.00000
6047 7411 7410 7414 3 -1.26775 3.02085 1.74473 -3.49782 0.00000 0.00000
6052 6044 6045 6046 3 33.20422 0.00000 -33.20422 0.00000 0.00000 0.00000 ; methylguanidinium ion
6052 6044 6045 6050 3 20.50160 0.00000 -20.50160 0.00000 0.00000 0.00000 ; imides
6053 6035 6036 6037 3 33.20422 0.00000 -33.20422 0.00000 0.00000 0.00000 ; methylguanidinium ion
6053 6035 6036 6043 3 30.28798 -4.81160 -25.47638 0.00000 0.00000 0.00000 ; imides
6062 6063 6070 6071 3 30.28798 -4.81160 -25.47638 0.00000 0.00000 0.00000 ; imides
6062 6080 6081 6082 3 33.20422 0.00000 -33.20422 0.00000 0.00000 0.00000 ; methylguanidinium ion
6062 6080 6081 6086 3 20.50160 0.00000 -20.50160 0.00000 0.00000 0.00000 ; imides
6063 6062 6080 6079 3 30.28798 -4.81160 -25.47638 0.00000 0.00000 0.00000 ; imides
6063 6062 6080 6081 3 33.20422 0.00000 -33.20422 0.00000 0.00000 0.00000 ; methylguanidinium ion
6063 6070 6071 6072 3 33.20422 0.00000 -33.20422 0.00000 0.00000 0.00000 ; methylguanidinium ion
6063 6070 6071 6079 3 30.28798 -4.81160 -25.47638 0.00000 0.00000 0.00000 ; imides
6064 6063 6070 6071 3 33.20422 0.00000 -33.20422 0.00000 0.00000 0.00000 ; methylguanidinium ion
6065 382 381 380 3 1.58992 4.76976 0.00000 -6.35968 0.00000 0.00000
6065 382 381 383 3 1.58992 4.76976 0.00000 -6.35968 0.00000 0.00000
6065 382 381 384 3 1.58992 4.76976 0.00000 -6.35968 0.00000 0.00000
6070 6063 6064 6065 3 33.20422 0.00000 -33.20422 0.00000 0.00000 0.00000 ; methylguanidinium ion
6070 6063 6064 6068 3 20.50160 0.00000 -20.50160 0.00000 0.00000 0.00000 ; imides
6070 6071 6079 6080 3 30.28798 -4.81160 -25.47638 0.00000 0.00000 0.00000 ; imides
6071 6079 6080 6062 3 30.28798 -4.81160 -25.47638 0.00000 0.00000 0.00000 ; imides
6071 6079 6080 6081 3 33.20422 0.00000 -33.20422 0.00000 0.00000 0.00000 ; methylguanidinium ion
6072 6071 6079 6080 3 33.20422 0.00000 -33.20422 0.00000 0.00000 0.00000 ; methylguanidinium ion
6073 6074 6842 6841 3 1.58992 4.76976 0.00000 -6.35968 0.00000 0.00000
6073 6074 6842 6843 3 1.58992 4.76976 0.00000 -6.35968 0.00000 0.00000
6073 6074 6842 6844 3 1.58992 4.76976 0.00000 -6.35968 0.00000 0.00000
6074 6842 6841 6840 3 1.78866 3.49154 0.53555 -5.81576 0.00000 0.00000
6074 6842 6841 6845 3 -1.26775 3.02085 1.74473 -3.49782 0.00000 0.00000
6079 6071 6072 6073 3 33.20422 0.00000 -33.20422 0.00000 0.00000 0.00000 ; methylguanidinium ion
6079 6071 6072 6077 3 20.50160 0.00000 -20.50160 0.00000 0.00000 0.00000 ; imides
6080 6062 6063 6064 3 33.20422 0.00000 -33.20422 0.00000 0.00000 0.00000 ; methylguanidinium ion
6080 6062 6063 6070 3 30.28798 -4.81160 -25.47638 0.00000 0.00000 0.00000 ; imides
6082 6083 11457 11456 3 1.58992 4.76976 0.00000 -6.35968 0.00000 0.00000
6082 6083 11457 11458 3 1.58992 4.76976 0.00000 -6.35968 0.00000 0.00000
6082 6083 11457 11459 3 1.58992 4.76976 0.00000 -6.35968 0.00000 0.00000
6083 11457 11456 11455 3 1.78866 3.49154 0.53555 -5.81576 0.00000 0.00000
6083 11457 11456 11460 3 -1.26775 3.02085 1.74473 -3.49782 0.00000 0.00000
6088 6089 6097 6098 3 30.28798 -4.81160 -25.47638 0.00000 0.00000 0.00000 ; imides
6088 6107 6108 6109 3 33.20422 0.00000 -33.20422 0.00000 0.00000 0.00000 ; methylguanidinium ion
6088 6107 6108 6112 3 20.50160 0.00000 -20.50160 0.00000 0.00000 0.00000 ; imides
6089 6088 6107 6106 3 30.28798 -4.81160 -25.47638 0.00000 0.00000 0.00000 ; imides
6089 6088 6107 6108 3 33.20422 0.00000 -33.20422 0.00000 0.00000 0.00000 ; methylguanidinium ion
6089 6097 6098 6099 3 33.20422 0.00000 -33.20422 0.00000 0.00000 0.00000 ; methylguanidinium ion
6089 6097 6098 6106 3 30.28798 -4.81160 -25.47638 0.00000 0.00000 0.00000 ; imides
6090 6089 6097 6098 3 33.20422 0.00000 -33.20422 0.00000 0.00000 0.00000 ; methylguanidinium ion
6091 6092 8083 8082 3 1.58992 4.76976 0.00000 -6.35968 0.00000 0.00000
6091 6092 8083 8084 3 1.58992 4.76976 0.00000 -6.35968 0.00000 0.00000
6091 6092 8083 8085 3 1.58992 4.76976 0.00000 -6.35968 0.00000 0.00000
6092 8083 8082 8081 3 1.78866 3.49154 0.53555 -5.81576 0.00000 0.00000
6092 8083 8082 8086 3 -1.26775 3.02085 1.74473 -3.49782 0.00000 0.00000
6097 6089 6090 6091 3 33.20422 0.00000 -33.20422 0.00000 0.00000 0.00000 ; methylguanidinium ion
6097 6089 6090 6095 3 20.50160 0.00000 -20.50160 0.00000 0.00000 0.00000 ; imides
6097 6098 6106 6107 3 30.28798 -4.81160 -25.47638 0.00000 0.00000 0.00000 ; imides
6098 6106 6107 6088 3 30.28798 -4.81160 -25.47638 0.00000 0.00000 0.00000 ; imides
6098 6106 6107 6108 3 33.20422 0.00000 -33.20422 0.00000 0.00000 0.00000 ; methylguanidinium ion
6099 6098 6106 6107 3 33.20422 0.00000 -33.20422 0.00000 0.00000 0.00000 ; methylguanidinium ion
6100 6101 11417 11416 3 1.58992 4.76976 0.00000 -6.35968 0.00000 0.00000
6100 6101 11417 11418 3 1.58992 4.76976 0.00000 -6.35968 0.00000 0.00000
6100 6101 11417 11419 3 1.58992 4.76976 0.00000 -6.35968 0.00000 0.00000
6101 11417 11416 11415 3 1.78866 3.49154 0.53555 -5.81576 0.00000 0.00000
6101 11417 11416 11420 3 -1.26775 3.02085 1.74473 -3.49782 0.00000 0.00000
6106 6098 6099 6100 3 33.20422 0.00000 -33.20422 0.00000 0.00000 0.00000 ; methylguanidinium ion
6106 6098 6099 6104 3 20.50160 0.00000 -20.50160 0.00000 0.00000 0.00000 ; imides
6107 6088 6089 6090 3 33.20422 0.00000 -33.20422 0.00000 0.00000 0.00000 ; methylguanidinium ion
6107 6088 6089 6097 3 30.28798 -4.81160 -25.47638 0.00000 0.00000 0.00000 ; imides
6109 3683 3682 3681 3 1.58992 4.76976 0.00000 -6.35968 0.00000 0.00000
6109 3683 3682 3684 3 1.58992 4.76976 0.00000 -6.35968 0.00000 0.00000
6109 3683 3682 3685 3 1.58992 4.76976 0.00000 -6.35968 0.00000 0.00000
6114 6115 6123 6124 3 30.28798 -4.81160 -25.47638 0.00000 0.00000 0.00000 ; imides
6114 6133 6134 6135 3 33.20422 0.00000 -33.20422 0.00000 0.00000 0.00000 ; methylguanidinium ion
6114 6133 6134 6138 3 20.50160 0.00000 -20.50160 0.00000 0.00000 0.00000 ; imides
6115 6114 6133 6132 3 30.28798 -4.81160 -25.47638 0.00000 0.00000 0.00000 ; imides
6115 6114 6133 6134 3 33.20422 0.00000 -33.20422 0.00000 0.00000 0.00000 ; methylguanidinium ion
6115 6123 6124 6125 3 33.20422 0.00000 -33.20422 0.00000 0.00000 0.00000 ; methylguanidinium ion
6115 6123 6124 6132 3 30.28798 -4.81160 -25.47638 0.00000 0.00000 0.00000 ; imides
6116 6115 6123 6124 3 33.20422 0.00000 -33.20422 0.00000 0.00000 0.00000 ; methylguanidinium ion
6117 6118 10409 10408 3 1.58992 4.76976 0.00000 -6.35968 0.00000 0.00000
6117 6118 10409 10410 3 1.58992 4.76976 0.00000 -6.35968 0.00000 0.00000
6117 6118 10409 10411 3 1.58992 4.76976 0.00000 -6.35968 0.00000 0.00000
6118 10409 10408 10407 3 1.78866 3.49154 0.53555 -5.81576 0.00000 0.00000
6118 10409 10408 10412 3 -1.26775 3.02085 1.74473 -3.49782 0.00000 0.00000
6123 6115 6116 6117 3 33.20422 0.00000 -33.20422 0.00000 0.00000 0.00000 ; methylguanidinium ion
6123 6115 6116 6121 3 20.50160 0.00000 -20.50160 0.00000 0.00000 0.00000 ; imides
6123 6124 6132 6133 3 30.28798 -4.81160 -25.47638 0.00000 0.00000 0.00000 ; imides
6124 6132 6133 6114 3 30.28798 -4.81160 -25.47638 0.00000 0.00000 0.00000 ; imides
6124 6132 6133 6134 3 33.20422 0.00000 -33.20422 0.00000 0.00000 0.00000 ; methylguanidinium ion
6125 6124 6132 6133 3 33.20422 0.00000 -33.20422 0.00000 0.00000 0.00000 ; methylguanidinium ion
6126 6127 12123 12122 3 1.58992 4.76976 0.00000 -6.35968 0.00000 0.00000
6126 6127 12123 12124 3 1.58992 4.76976 0.00000 -6.35968 0.00000 0.00000
6126 6127 12123 12125 3 1.58992 4.76976 0.00000 -6.35968 0.00000 0.00000
6127 12123 12122 12121 3 1.78866 3.49154 0.53555 -5.81576 0.00000 0.00000
6127 12123 12122 12126 3 -1.26775 3.02085 1.74473 -3.49782 0.00000 0.00000
6132 6124 6125 6126 3 33.20422 0.00000 -33.20422 0.00000 0.00000 0.00000 ; methylguanidinium ion
6132 6124 6125 6130 3 20.50160 0.00000 -20.50160 0.00000 0.00000 0.00000 ; imides
6133 6114 6115 6116 3 33.20422 0.00000 -33.20422 0.00000 0.00000 0.00000 ; methylguanidinium ion
6133 6114 6115 6123 3 30.28798 -4.81160 -25.47638 0.00000 0.00000 0.00000 ; imides
6135 5693 5692 5691 3 1.58992 4.76976 0.00000 -6.35968 0.00000 0.00000
6135 5693 5692 5694 3 1.58992 4.76976 0.00000 -6.35968 0.00000 0.00000
6135 5693 5692 5695 3 1.58992 4.76976 0.00000 -6.35968 0.00000 0.00000
6140 6141 6149 6150 3 30.28798 -4.81160 -25.47638 0.00000 0.00000 0.00000 ; imides
6140 6159 6160 6161 3 33.20422 0.00000 -33.20422 0.00000 0.00000 0.00000 ; methylguanidinium ion
6140 6159 6160 6165 3 20.50160 0.00000 -20.50160 0.00000 0.00000 0.00000 ; imides
6141 6140 6159 6158 3 30.28798 -4.81160 -25.47638 0.00000 0.00000 0.00000 ; imides
6141 6140 6159 6160 3 33.20422 0.00000 -33.20422 0.00000 0.00000 0.00000 ; methylguanidinium ion
6141 6149 6150 6151 3 33.20422 0.00000 -33.20422 0.00000 0.00000 0.00000 ; methylguanidinium ion
6141 6149 6150 6158 3 30.28798 -4.81160 -25.47638 0.00000 0.00000 0.00000 ; imides
6142 6141 6149 6150 3 33.20422 0.00000 -33.20422 0.00000 0.00000 0.00000 ; methylguanidinium ion
6143 6144 12642 12641 3 1.58992 4.76976 0.00000 -6.35968 0.00000 0.00000
6143 6144 12642 12643 3 1.58992 4.76976 0.00000 -6.35968 0.00000 0.00000
6143 6144 12642 12644 3 1.58992 4.76976 0.00000 -6.35968 0.00000 0.00000
6144 12642 12641 12640 3 1.78866 3.49154 0.53555 -5.81576 0.00000 0.00000
6144 12642 12641 12645 3 -1.26775 3.02085 1.74473 -3.49782 0.00000 0.00000
6149 6141 6142 6143 3 33.20422 0.00000 -33.20422 0.00000 0.00000 0.00000 ; methylguanidinium ion
6149 6141 6142 6147 3 20.50160 0.00000 -20.50160 0.00000 0.00000 0.00000 ; imides
6149 6150 6158 6159 3 30.28798 -4.81160 -25.47638 0.00000 0.00000 0.00000 ; imides
6150 6158 6159 6140 3 30.28798 -4.81160 -25.47638 0.00000 0.00000 0.00000 ; imides
6150 6158 6159 6160 3 33.20422 0.00000 -33.20422 0.00000 0.00000 0.00000 ; methylguanidinium ion
6151 6150 6158 6159 3 33.20422 0.00000 -33.20422 0.00000 0.00000 0.00000 ; methylguanidinium ion
6152 6153 10151 10150 3 1.58992 4.76976 0.00000 -6.35968 0.00000 0.00000
6152 6153 10151 10152 3 1.58992 4.76976 0.00000 -6.35968 0.00000 0.00000
6152 6153 10151 10153 3 1.58992 4.76976 0.00000 -6.35968 0.00000 0.00000
6153 10151 10150 10149 3 1.78866 3.49154 0.53555 -5.81576 0.00000 0.00000
6153 10151 10150 10154 3 -1.26775 3.02085 1.74473 -3.49782 0.00000 0.00000
6158 6150 6151 6152 3 33.20422 0.00000 -33.20422 0.00000 0.00000 0.00000 ; methylguanidinium ion
6158 6150 6151 6156 3 20.50160 0.00000 -20.50160 0.00000 0.00000 0.00000 ; imides
6159 6140 6141 6142 3 33.20422 0.00000 -33.20422 0.00000 0.00000 0.00000 ; methylguanidinium ion
6159 6140 6141 6149 3 30.28798 -4.81160 -25.47638 0.00000 0.00000 0.00000 ; imides
6161 6162 9176 9175 3 1.58992 4.76976 0.00000 -6.35968 0.00000 0.00000
6161 6162 9176 9177 3 1.58992 4.76976 0.00000 -6.35968 0.00000 0.00000
6161 6162 9176 9178 3 1.58992 4.76976 0.00000 -6.35968 0.00000 0.00000
6162 9176 9175 9174 3 1.78866 3.49154 0.53555 -5.81576 0.00000 0.00000
6162 9176 9175 9179 3 -1.26775 3.02085 1.74473 -3.49782 0.00000 0.00000
6167 6168 6177 6178 3 30.28798 -4.81160 -25.47638 0.00000 0.00000 0.00000 ; imides
6167 6187 6188 6189 3 33.20422 0.00000 -33.20422 0.00000 0.00000 0.00000 ; methylguanidinium ion
6167 6187 6188 6193 3 20.50160 0.00000 -20.50160 0.00000 0.00000 0.00000 ; imides
6168 6167 6187 6186 3 30.28798 -4.81160 -25.47638 0.00000 0.00000 0.00000 ; imides
6168 6167 6187 6188 3 33.20422 0.00000 -33.20422 0.00000 0.00000 0.00000 ; methylguanidinium ion
6168 6177 6178 6179 3 33.20422 0.00000 -33.20422 0.00000 0.00000 0.00000 ; methylguanidinium ion
6168 6177 6178 6186 3 30.28798 -4.81160 -25.47638 0.00000 0.00000 0.00000 ; imides
6169 6168 6177 6178 3 33.20422 0.00000 -33.20422 0.00000 0.00000 0.00000 ; methylguanidinium ion
6177 6168 6169 6170 3 33.20422 0.00000 -33.20422 0.00000 0.00000 0.00000 ; methylguanidinium ion
6177 6168 6169 6175 3 20.50160 0.00000 -20.50160 0.00000 0.00000 0.00000 ; imides
6177 6178 6186 6187 3 30.28798 -4.81160 -25.47638 0.00000 0.00000 0.00000 ; imides
6178 6186 6187 6167 3 30.28798 -4.81160 -25.47638 0.00000 0.00000 0.00000 ; imides
6178 6186 6187 6188 3 33.20422 0.00000 -33.20422 0.00000 0.00000 0.00000 ; methylguanidinium ion
6179 6178 6186 6187 3 33.20422 0.00000 -33.20422 0.00000 0.00000 0.00000 ; methylguanidinium ion
6180 6181 8362 8361 3 1.58992 4.76976 0.00000 -6.35968 0.00000 0.00000
6180 6181 8362 8363 3 1.58992 4.76976 0.00000 -6.35968 0.00000 0.00000
6180 6181 8362 8364 3 1.58992 4.76976 0.00000 -6.35968 0.00000 0.00000
6181 8362 8361 8360 3 1.78866 3.49154 0.53555 -5.81576 0.00000 0.00000
6181 8362 8361 8365 3 -1.26775 3.02085 1.74473 -3.49782 0.00000 0.00000
6186 6178 6179 6180 3 33.20422 0.00000 -33.20422 0.00000 0.00000 0.00000 ; methylguanidinium ion
6186 6178 6179 6184 3 20.50160 0.00000 -20.50160 0.00000 0.00000 0.00000 ; imides
6187 6167 6168 6169 3 33.20422 0.00000 -33.20422 0.00000 0.00000 0.00000 ; methylguanidinium ion
6187 6167 6168 6177 3 30.28798 -4.81160 -25.47638 0.00000 0.00000 0.00000 ; imides
6189 6190 8288 8287 3 1.58992 4.76976 0.00000 -6.35968 0.00000 0.00000
6189 6190 8288 8289 3 1.58992 4.76976 0.00000 -6.35968 0.00000 0.00000
6189 6190 8288 8290 3 1.58992 4.76976 0.00000 -6.35968 0.00000 0.00000
6190 8288 8287 8286 3 1.78866 3.49154 0.53555 -5.81576 0.00000 0.00000
6190 8288 8287 8291 3 -1.26775 3.02085 1.74473 -3.49782 0.00000 0.00000
6195 6196 6203 6204 3 30.28798 -4.81160 -25.47638 0.00000 0.00000 0.00000 ; imides
6195 6213 6214 6215 3 33.20422 0.00000 -33.20422 0.00000 0.00000 0.00000 ; methylguanidinium ion
6195 6213 6214 6219 3 20.50160 0.00000 -20.50160 0.00000 0.00000 0.00000 ; imides
6196 6195 6213 6212 3 30.28798 -4.81160 -25.47638 0.00000 0.00000 0.00000 ; imides
6196 6195 6213 6214 3 33.20422 0.00000 -33.20422 0.00000 0.00000 0.00000 ; methylguanidinium ion
6196 6203 6204 6205 3 33.20422 0.00000 -33.20422 0.00000 0.00000 0.00000 ; methylguanidinium ion
6196 6203 6204 6212 3 30.28798 -4.81160 -25.47638 0.00000 0.00000 0.00000 ; imides
6197 6196 6203 6204 3 33.20422 0.00000 -33.20422 0.00000 0.00000 0.00000 ; methylguanidinium ion
6198 4990 4989 4988 3 1.58992 4.76976 0.00000 -6.35968 0.00000 0.00000
6198 4990 4989 4991 3 1.58992 4.76976 0.00000 -6.35968 0.00000 0.00000
6198 4990 4989 4992 3 1.58992 4.76976 0.00000 -6.35968 0.00000 0.00000
6203 6196 6197 6198 3 33.20422 0.00000 -33.20422 0.00000 0.00000 0.00000 ; methylguanidinium ion
6203 6196 6197 6201 3 20.50160 0.00000 -20.50160 0.00000 0.00000 0.00000 ; imides
6203 6204 6212 6213 3 30.28798 -4.81160 -25.47638 0.00000 0.00000 0.00000 ; imides
6204 6212 6213 6195 3 30.28798 -4.81160 -25.47638 0.00000 0.00000 0.00000 ; imides
6204 6212 6213 6214 3 33.20422 0.00000 -33.20422 0.00000 0.00000 0.00000 ; methylguanidinium ion
6205 6204 6212 6213 3 33.20422 0.00000 -33.20422 0.00000 0.00000 0.00000 ; methylguanidinium ion
6206 6207 9359 9358 3 1.58992 4.76976 0.00000 -6.35968 0.00000 0.00000
6206 6207 9359 9360 3 1.58992 4.76976 0.00000 -6.35968 0.00000 0.00000
6206 6207 9359 9361 3 1.58992 4.76976 0.00000 -6.35968 0.00000 0.00000
6207 9359 9358 9357 3 1.78866 3.49154 0.53555 -5.81576 0.00000 0.00000
6207 9359 9358 9362 3 -1.26775 3.02085 1.74473 -3.49782 0.00000 0.00000
6212 6204 6205 6206 3 33.20422 0.00000 -33.20422 0.00000 0.00000 0.00000 ; methylguanidinium ion
6212 6204 6205 6210 3 20.50160 0.00000 -20.50160 0.00000 0.00000 0.00000 ; imides
6213 6195 6196 6197 3 33.20422 0.00000 -33.20422 0.00000 0.00000 0.00000 ; methylguanidinium ion
6213 6195 6196 6203 3 30.28798 -4.81160 -25.47638 0.00000 0.00000 0.00000 ; imides
6215 6216 11084 11083 3 1.58992 4.76976 0.00000 -6.35968 0.00000 0.00000
6215 6216 11084 11085 3 1.58992 4.76976 0.00000 -6.35968 0.00000 0.00000
6215 6216 11084 11086 3 1.58992 4.76976 0.00000 -6.35968 0.00000 0.00000
6216 11084 11083 11082 3 1.78866 3.49154 0.53555 -5.81576 0.00000 0.00000
6216 11084 11083 11087 3 -1.26775 3.02085 1.74473 -3.49782 0.00000 0.00000
6221 6222 6231 6232 3 30.28798 -4.81160 -25.47638 0.00000 0.00000 0.00000 ; imides
6221 6241 6242 6243 3 33.20422 0.00000 -33.20422 0.00000 0.00000 0.00000 ; methylguanidinium ion
6221 6241 6242 6248 3 20.50160 0.00000 -20.50160 0.00000 0.00000 0.00000 ; imides
6222 6221 6241 6240 3 30.28798 -4.81160 -25.47638 0.00000 0.00000 0.00000 ; imides
6222 6221 6241 6242 3 33.20422 0.00000 -33.20422 0.00000 0.00000 0.00000 ; methylguanidinium ion
6222 6231 6232 6233 3 33.20422 0.00000 -33.20422 0.00000 0.00000 0.00000 ; methylguanidinium ion
6222 6231 6232 6240 3 30.28798 -4.81160 -25.47638 0.00000 0.00000 0.00000 ; imides
6223 6222 6231 6232 3 33.20422 0.00000 -33.20422 0.00000 0.00000 0.00000 ; methylguanidinium ion
6231 6222 6223 6224 3 33.20422 0.00000 -33.20422 0.00000 0.00000 0.00000 ; methylguanidinium ion
6231 6222 6223 6229 3 20.50160 0.00000 -20.50160 0.00000 0.00000 0.00000 ; imides
6231 6232 6240 6241 3 30.28798 -4.81160 -25.47638 0.00000 0.00000 0.00000 ; imides
6232 6240 6241 6221 3 30.28798 -4.81160 -25.47638 0.00000 0.00000 0.00000 ; imides
6232 6240 6241 6242 3 33.20422 0.00000 -33.20422 0.00000 0.00000 0.00000 ; methylguanidinium ion
6233 6232 6240 6241 3 33.20422 0.00000 -33.20422 0.00000 0.00000 0.00000 ; methylguanidinium ion
6234 6235 10541 10540 3 1.58992 4.76976 0.00000 -6.35968 0.00000 0.00000
6234 6235 10541 10542 3 1.58992 4.76976 0.00000 -6.35968 0.00000 0.00000
6234 6235 10541 10543 3 1.58992 4.76976 0.00000 -6.35968 0.00000 0.00000
6235 10541 10540 10539 3 1.78866 3.49154 0.53555 -5.81576 0.00000 0.00000
6235 10541 10540 10544 3 -1.26775 3.02085 1.74473 -3.49782 0.00000 0.00000
6240 6232 6233 6234 3 33.20422 0.00000 -33.20422 0.00000 0.00000 0.00000 ; methylguanidinium ion
6240 6232 6233 6238 3 20.50160 0.00000 -20.50160 0.00000 0.00000 0.00000 ; imides
6241 6221 6222 6223 3 33.20422 0.00000 -33.20422 0.00000 0.00000 0.00000 ; methylguanidinium ion
6241 6221 6222 6231 3 30.28798 -4.81160 -25.47638 0.00000 0.00000 0.00000 ; imides
6250 6251 6258 6259 3 30.28798 -4.81160 -25.47638 0.00000 0.00000 0.00000 ; imides
6250 6269 6270 6271 3 33.20422 0.00000 -33.20422 0.00000 0.00000 0.00000 ; methylguanidinium ion
6250 6269 6270 6275 3 20.50160 0.00000 -20.50160 0.00000 0.00000 0.00000 ; imides
6251 6250 6269 6268 3 30.28798 -4.81160 -25.47638 0.00000 0.00000 0.00000 ; imides
6251 6250 6269 6270 3 33.20422 0.00000 -33.20422 0.00000 0.00000 0.00000 ; methylguanidinium ion
6251 6258 6259 6260 3 33.20422 0.00000 -33.20422 0.00000 0.00000 0.00000 ; methylguanidinium ion
6251 6258 6259 6268 3 30.28798 -4.81160 -25.47638 0.00000 0.00000 0.00000 ; imides
6252 6251 6258 6259 3 33.20422 0.00000 -33.20422 0.00000 0.00000 0.00000 ; methylguanidinium ion
6253 5961 5960 5959 3 1.58992 4.76976 0.00000 -6.35968 0.00000 0.00000
6253 5961 5960 5962 3 1.58992 4.76976 0.00000 -6.35968 0.00000 0.00000
6253 5961 5960 5963 3 1.58992 4.76976 0.00000 -6.35968 0.00000 0.00000
6258 6251 6252 6253 3 33.20422 0.00000 -33.20422 0.00000 0.00000 0.00000 ; methylguanidinium ion
6258 6251 6252 6256 3 20.50160 0.00000 -20.50160 0.00000 0.00000 0.00000 ; imides
6258 6259 6268 6269 3 30.28798 -4.81160 -25.47638 0.00000 0.00000 0.00000 ; imides
6259 6268 6269 6250 3 30.28798 -4.81160 -25.47638 0.00000 0.00000 0.00000 ; imides
6259 6268 6269 6270 3 33.20422 0.00000 -33.20422 0.00000 0.00000 0.00000 ; methylguanidinium ion
6260 6259 6268 6269 3 33.20422 0.00000 -33.20422 0.00000 0.00000 0.00000 ; methylguanidinium ion
6268 6259 6260 6261 3 33.20422 0.00000 -33.20422 0.00000 0.00000 0.00000 ; methylguanidinium ion
6268 6259 6260 6266 3 20.50160 0.00000 -20.50160 0.00000 0.00000 0.00000 ; imides
6269 6250 6251 6252 3 33.20422 0.00000 -33.20422 0.00000 0.00000 0.00000 ; methylguanidinium ion
6269 6250 6251 6258 3 30.28798 -4.81160 -25.47638 0.00000 0.00000 0.00000 ; imides
6271 6272 11158 11157 3 1.58992 4.76976 0.00000 -6.35968 0.00000 0.00000
6271 6272 11158 11159 3 1.58992 4.76976 0.00000 -6.35968 0.00000 0.00000
6271 6272 11158 11160 3 1.58992 4.76976 0.00000 -6.35968 0.00000 0.00000
6272 11158 11157 11156 3 1.78866 3.49154 0.53555 -5.81576 0.00000 0.00000
6272 11158 11157 11161 3 -1.26775 3.02085 1.74473 -3.49782 0.00000 0.00000
6277 6278 6285 6286 3 30.28798 -4.81160 -25.47638 0.00000 0.00000 0.00000 ; imides
6277 6295 6296 6297 3 33.20422 0.00000 -33.20422 0.00000 0.00000 0.00000 ; methylguanidinium ion
6277 6295 6296 6300 3 20.50160 0.00000 -20.50160 0.00000 0.00000 0.00000 ; imides
6278 6277 6295 6294 3 30.28798 -4.81160 -25.47638 0.00000 0.00000 0.00000 ; imides
6278 6277 6295 6296 3 33.20422 0.00000 -33.20422 0.00000 0.00000 0.00000 ; methylguanidinium ion
6278 6285 6286 6287 3 33.20422 0.00000 -33.20422 0.00000 0.00000 0.00000 ; methylguanidinium ion
6278 6285 6286 6294 3 30.28798 -4.81160 -25.47638 0.00000 0.00000 0.00000 ; imides
6279 6278 6285 6286 3 33.20422 0.00000 -33.20422 0.00000 0.00000 0.00000 ; methylguanidinium ion
6280 4929 4928 4927 3 1.58992 4.76976 0.00000 -6.35968 0.00000 0.00000
6280 4929 4928 4930 3 1.58992 4.76976 0.00000 -6.35968 0.00000 0.00000
6280 4929 4928 4931 3 1.58992 4.76976 0.00000 -6.35968 0.00000 0.00000
6285 6278 6279 6280 3 33.20422 0.00000 -33.20422 0.00000 0.00000 0.00000 ; methylguanidinium ion
6285 6278 6279 6283 3 20.50160 0.00000 -20.50160 0.00000 0.00000 0.00000 ; imides
6285 6286 6294 6295 3 30.28798 -4.81160 -25.47638 0.00000 0.00000 0.00000 ; imides
6286 6294 6295 6277 3 30.28798 -4.81160 -25.47638 0.00000 0.00000 0.00000 ; imides
6286 6294 6295 6296 3 33.20422 0.00000 -33.20422 0.00000 0.00000 0.00000 ; methylguanidinium ion
6287 6286 6294 6295 3 33.20422 0.00000 -33.20422 0.00000 0.00000 0.00000 ; methylguanidinium ion
6288 6289 11584 11583 3 1.58992 4.76976 0.00000 -6.35968 0.00000 0.00000
6288 6289 11584 11585 3 1.58992 4.76976 0.00000 -6.35968 0.00000 0.00000
6288 6289 11584 11586 3 1.58992 4.76976 0.00000 -6.35968 0.00000 0.00000
6289 11584 11583 11582 3 1.78866 3.49154 0.53555 -5.81576 0.00000 0.00000
6289 11584 11583 11587 3 -1.26775 3.02085 1.74473 -3.49782 0.00000 0.00000
6294 6286 6287 6288 3 33.20422 0.00000 -33.20422 0.00000 0.00000 0.00000 ; methylguanidinium ion
6294 6286 6287 6292 3 20.50160 0.00000 -20.50160 0.00000 0.00000 0.00000 ; imides
6295 6277 6278 6279 3 33.20422 0.00000 -33.20422 0.00000 0.00000 0.00000 ; methylguanidinium ion
6295 6277 6278 6285 3 30.28798 -4.81160 -25.47638 0.00000 0.00000 0.00000 ; imides
6297 3527 3526 3525 3 1.58992 4.76976 0.00000 -6.35968 0.00000 0.00000
6297 3527 3526 3528 3 1.58992 4.76976 0.00000 -6.35968 0.00000 0.00000
6297 3527 3526 3529 3 1.58992 4.76976 0.00000 -6.35968 0.00000 0.00000
6302 6303 6312 6313 3 30.28798 -4.81160 -25.47638 0.00000 0.00000 0.00000 ; imides
6302 6322 6323 6324 3 33.20422 0.00000 -33.20422 0.00000 0.00000 0.00000 ; methylguanidinium ion
6302 6322 6323 6329 3 20.50160 0.00000 -20.50160 0.00000 0.00000 0.00000 ; imides
6303 6302 6322 6321 3 30.28798 -4.81160 -25.47638 0.00000 0.00000 0.00000 ; imides
6303 6302 6322 6323 3 33.20422 0.00000 -33.20422 0.00000 0.00000 0.00000 ; methylguanidinium ion
6303 6312 6313 6314 3 33.20422 0.00000 -33.20422 0.00000 0.00000 0.00000 ; methylguanidinium ion
6303 6312 6313 6321 3 30.28798 -4.81160 -25.47638 0.00000 0.00000 0.00000 ; imides
6304 6303 6312 6313 3 33.20422 0.00000 -33.20422 0.00000 0.00000 0.00000 ; methylguanidinium ion
6312 6303 6304 6305 3 33.20422 0.00000 -33.20422 0.00000 0.00000 0.00000 ; methylguanidinium ion
6312 6303 6304 6310 3 20.50160 0.00000 -20.50160 0.00000 0.00000 0.00000 ; imides
6312 6313 6321 6322 3 30.28798 -4.81160 -25.47638 0.00000 0.00000 0.00000 ; imides
6313 6321 6322 6302 3 30.28798 -4.81160 -25.47638 0.00000 0.00000 0.00000 ; imides
6313 6321 6322 6323 3 33.20422 0.00000 -33.20422 0.00000 0.00000 0.00000 ; methylguanidinium ion
6314 6313 6321 6322 3 33.20422 0.00000 -33.20422 0.00000 0.00000 0.00000 ; methylguanidinium ion
6315 6316 8346 8345 3 1.58992 4.76976 0.00000 -6.35968 0.00000 0.00000
6315 6316 8346 8347 3 1.58992 4.76976 0.00000 -6.35968 0.00000 0.00000
6315 6316 8346 8348 3 1.58992 4.76976 0.00000 -6.35968 0.00000 0.00000
6316 8346 8345 8344 3 1.78866 3.49154 0.53555 -5.81576 0.00000 0.00000
6316 8346 8345 8349 3 -1.26775 3.02085 1.74473 -3.49782 0.00000 0.00000
6321 6313 6314 6315 3 33.20422 0.00000 -33.20422 0.00000 0.00000 0.00000 ; methylguanidinium ion
6321 6313 6314 6319 3 20.50160 0.00000 -20.50160 0.00000 0.00000 0.00000 ; imides
6322 6302 6303 6304 3 33.20422 0.00000 -33.20422 0.00000 0.00000 0.00000 ; methylguanidinium ion
6322 6302 6303 6312 3 30.28798 -4.81160 -25.47638 0.00000 0.00000 0.00000 ; imides
6331 6332 6341 6342 3 30.28798 -4.81160 -25.47638 0.00000 0.00000 0.00000 ; imides
6331 6351 6352 6353 3 33.20422 0.00000 -33.20422 0.00000 0.00000 0.00000 ; methylguanidinium ion
6331 6351 6352 6357 3 20.50160 0.00000 -20.50160 0.00000 0.00000 0.00000 ; imides
6332 6331 6351 6350 3 30.28798 -4.81160 -25.47638 0.00000 0.00000 0.00000 ; imides
6332 6331 6351 6352 3 33.20422 0.00000 -33.20422 0.00000 0.00000 0.00000 ; methylguanidinium ion
6332 6341 6342 6343 3 33.20422 0.00000 -33.20422 0.00000 0.00000 0.00000 ; methylguanidinium ion
6332 6341 6342 6350 3 30.28798 -4.81160 -25.47638 0.00000 0.00000 0.00000 ; imides
6333 6332 6341 6342 3 33.20422 0.00000 -33.20422 0.00000 0.00000 0.00000 ; methylguanidinium ion
6341 6332 6333 6334 3 33.20422 0.00000 -33.20422 0.00000 0.00000 0.00000 ; methylguanidinium ion
6341 6332 6333 6339 3 20.50160 0.00000 -20.50160 0.00000 0.00000 0.00000 ; imides
6341 6342 6350 6351 3 30.28798 -4.81160 -25.47638 0.00000 0.00000 0.00000 ; imides
6342 6350 6351 6331 3 30.28798 -4.81160 -25.47638 0.00000 0.00000 0.00000 ; imides
6342 6350 6351 6352 3 33.20422 0.00000 -33.20422 0.00000 0.00000 0.00000 ; methylguanidinium ion
6343 6342 6350 6351 3 33.20422 0.00000 -33.20422 0.00000 0.00000 0.00000 ; methylguanidinium ion
6344 6345 11433 11432 3 1.58992 4.76976 0.00000 -6.35968 0.00000 0.00000
6344 6345 11433 11434 3 1.58992 4.76976 0.00000 -6.35968 0.00000 0.00000
6344 6345 11433 11435 3 1.58992 4.76976 0.00000 -6.35968 0.00000 0.00000
6345 11433 11432 11431 3 1.78866 3.49154 0.53555 -5.81576 0.00000 0.00000
6345 11433 11432 11436 3 -1.26775 3.02085 1.74473 -3.49782 0.00000 0.00000
6350 6342 6343 6344 3 33.20422 0.00000 -33.20422 0.00000 0.00000 0.00000 ; methylguanidinium ion
6350 6342 6343 6348 3 20.50160 0.00000 -20.50160 0.00000 0.00000 0.00000 ; imides
6351 6331 6332 6333 3 33.20422 0.00000 -33.20422 0.00000 0.00000 0.00000 ; methylguanidinium ion
6351 6331 6332 6341 3 30.28798 -4.81160 -25.47638 0.00000 0.00000 0.00000 ; imides
6353 6354 10078 10077 3 1.58992 4.76976 0.00000 -6.35968 0.00000 0.00000
6353 6354 10078 10079 3 1.58992 4.76976 0.00000 -6.35968 0.00000 0.00000
6353 6354 10078 10080 3 1.58992 4.76976 0.00000 -6.35968 0.00000 0.00000
6354 10078 10077 10076 3 1.78866 3.49154 0.53555 -5.81576 0.00000 0.00000
6354 10078 10077 10081 3 -1.26775 3.02085 1.74473 -3.49782 0.00000 0.00000
6359 6360 6367 6368 3 30.28798 -4.81160 -25.47638 0.00000 0.00000 0.00000 ; imides
6359 6376 6377 6378 3 33.20422 0.00000 -33.20422 0.00000 0.00000 0.00000 ; methylguanidinium ion
6359 6376 6377 6382 3 20.50160 0.00000 -20.50160 0.00000 0.00000 0.00000 ; imides
6360 6359 6376 6375 3 30.28798 -4.81160 -25.47638 0.00000 0.00000 0.00000 ; imides
6360 6359 6376 6377 3 33.20422 0.00000 -33.20422 0.00000 0.00000 0.00000 ; methylguanidinium ion
6360 6367 6368 6369 3 33.20422 0.00000 -33.20422 0.00000 0.00000 0.00000 ; methylguanidinium ion
6360 6367 6368 6375 3 30.28798 -4.81160 -25.47638 0.00000 0.00000 0.00000 ; imides
6361 6360 6367 6368 3 33.20422 0.00000 -33.20422 0.00000 0.00000 0.00000 ; methylguanidinium ion
6362 3474 3473 3472 3 1.58992 4.76976 0.00000 -6.35968 0.00000 0.00000
6362 3474 3473 3475 3 1.58992 4.76976 0.00000 -6.35968 0.00000 0.00000
6362 3474 3473 3476 3 1.58992 4.76976 0.00000 -6.35968 0.00000 0.00000
6367 6360 6361 6362 3 33.20422 0.00000 -33.20422 0.00000 0.00000 0.00000 ; methylguanidinium ion
6367 6360 6361 6365 3 20.50160 0.00000 -20.50160 0.00000 0.00000 0.00000 ; imides
6367 6368 6375 6376 3 30.28798 -4.81160 -25.47638 0.00000 0.00000 0.00000 ; imides
6368 6375 6376 6359 3 30.28798 -4.81160 -25.47638 0.00000 0.00000 0.00000 ; imides
6368 6375 6376 6377 3 33.20422 0.00000 -33.20422 0.00000 0.00000 0.00000 ; methylguanidinium ion
6369 6368 6375 6376 3 33.20422 0.00000 -33.20422 0.00000 0.00000 0.00000 ; methylguanidinium ion
6370 1306 1305 1304 3 1.58992 4.76976 0.00000 -6.35968 0.00000 0.00000
6370 1306 1305 1307 3 1.58992 4.76976 0.00000 -6.35968 0.00000 0.00000
6370 1306 1305 1308 3 1.58992 4.76976 0.00000 -6.35968 0.00000 0.00000
6375 6368 6369 6370 3 33.20422 0.00000 -33.20422 0.00000 0.00000 0.00000 ; methylguanidinium ion
6375 6368 6369 6373 3 20.50160 0.00000 -20.50160 0.00000 0.00000 0.00000 ; imides
6376 6359 6360 6361 3 33.20422 0.00000 -33.20422 0.00000 0.00000 0.00000 ; methylguanidinium ion
6376 6359 6360 6367 3 30.28798 -4.81160 -25.47638 0.00000 0.00000 0.00000 ; imides
6378 6379 9527 9526 3 1.58992 4.76976 0.00000 -6.35968 0.00000 0.00000
6378 6379 9527 9528 3 1.58992 4.76976 0.00000 -6.35968 0.00000 0.00000
6378 6379 9527 9529 3 1.58992 4.76976 0.00000 -6.35968 0.00000 0.00000
6379 9527 9526 9525 3 1.78866 3.49154 0.53555 -5.81576 0.00000 0.00000
6379 9527 9526 9530 3 -1.26775 3.02085 1.74473 -3.49782 0.00000 0.00000
6384 6385 6394 6395 3 30.28798 -4.81160 -25.47638 0.00000 0.00000 0.00000 ; imides
6384 6404 6405 6406 3 33.20422 0.00000 -33.20422 0.00000 0.00000 0.00000 ; methylguanidinium ion
6384 6404 6405 6409 3 20.50160 0.00000 -20.50160 0.00000 0.00000 0.00000 ; imides
6385 6384 6404 6403 3 30.28798 -4.81160 -25.47638 0.00000 0.00000 0.00000 ; imides
6385 6384 6404 6405 3 33.20422 0.00000 -33.20422 0.00000 0.00000 0.00000 ; methylguanidinium ion
6385 6394 6395 6396 3 33.20422 0.00000 -33.20422 0.00000 0.00000 0.00000 ; methylguanidinium ion
6385 6394 6395 6403 3 30.28798 -4.81160 -25.47638 0.00000 0.00000 0.00000 ; imides
6386 6385 6394 6395 3 33.20422 0.00000 -33.20422 0.00000 0.00000 0.00000 ; methylguanidinium ion
6394 6385 6386 6387 3 33.20422 0.00000 -33.20422 0.00000 0.00000 0.00000 ; methylguanidinium ion
6394 6385 6386 6392 3 20.50160 0.00000 -20.50160 0.00000 0.00000 0.00000 ; imides
6394 6395 6403 6404 3 30.28798 -4.81160 -25.47638 0.00000 0.00000 0.00000 ; imides
6395 6403 6404 6384 3 30.28798 -4.81160 -25.47638 0.00000 0.00000 0.00000 ; imides
6395 6403 6404 6405 3 33.20422 0.00000 -33.20422 0.00000 0.00000 0.00000 ; methylguanidinium ion
6396 6395 6403 6404 3 33.20422 0.00000 -33.20422 0.00000 0.00000 0.00000 ; methylguanidinium ion
6397 6398 11320 11319 3 1.58992 4.76976 0.00000 -6.35968 0.00000 0.00000
6397 6398 11320 11321 3 1.58992 4.76976 0.00000 -6.35968 0.00000 0.00000
6397 6398 11320 11322 3 1.58992 4.76976 0.00000 -6.35968 0.00000 0.00000
6398 11320 11319 11318 3 1.78866 3.49154 0.53555 -5.81576 0.00000 0.00000
6398 11320 11319 11323 3 -1.26775 3.02085 1.74473 -3.49782 0.00000 0.00000
6403 6395 6396 6397 3 33.20422 0.00000 -33.20422 0.00000 0.00000 0.00000 ; methylguanidinium ion
6403 6395 6396 6401 3 20.50160 0.00000 -20.50160 0.00000 0.00000 0.00000 ; imides
6404 6384 6385 6386 3 33.20422 0.00000 -33.20422 0.00000 0.00000 0.00000 ; methylguanidinium ion
6404 6384 6385 6394 3 30.28798 -4.81160 -25.47638 0.00000 0.00000 0.00000 ; imides
6406 5171 5170 5169 3 1.58992 4.76976 0.00000 -6.35968 0.00000 0.00000
6406 5171 5170 5172 3 1.58992 4.76976 0.00000 -6.35968 0.00000 0.00000
6406 5171 5170 5173 3 1.58992 4.76976 0.00000 -6.35968 0.00000 0.00000
6411 6412 6419 6420 3 30.28798 -4.81160 -25.47638 0.00000 0.00000 0.00000 ; imides
6411 6429 6430 6431 3 33.20422 0.00000 -33.20422 0.00000 0.00000 0.00000 ; methylguanidinium ion
6411 6429 6430 6435 3 20.50160 0.00000 -20.50160 0.00000 0.00000 0.00000 ; imides
6412 6411 6429 6428 3 30.28798 -4.81160 -25.47638 0.00000 0.00000 0.00000 ; imides
6412 6411 6429 6430 3 33.20422 0.00000 -33.20422 0.00000 0.00000 0.00000 ; methylguanidinium ion
6412 6419 6420 6421 3 33.20422 0.00000 -33.20422 0.00000 0.00000 0.00000 ; methylguanidinium ion
6412 6419 6420 6428 3 30.28798 -4.81160 -25.47638 0.00000 0.00000 0.00000 ; imides
6413 6412 6419 6420 3 33.20422 0.00000 -33.20422 0.00000 0.00000 0.00000 ; methylguanidinium ion
6414 4585 4584 4583 3 1.58992 4.76976 0.00000 -6.35968 0.00000 0.00000
6414 4585 4584 4586 3 1.58992 4.76976 0.00000 -6.35968 0.00000 0.00000
6414 4585 4584 4587 3 1.58992 4.76976 0.00000 -6.35968 0.00000 0.00000
6419 6412 6413 6414 3 33.20422 0.00000 -33.20422 0.00000 0.00000 0.00000 ; methylguanidinium ion
6419 6412 6413 6417 3 20.50160 0.00000 -20.50160 0.00000 0.00000 0.00000 ; imides
6419 6420 6428 6429 3 30.28798 -4.81160 -25.47638 0.00000 0.00000 0.00000 ; imides
6420 6428 6429 6411 3 30.28798 -4.81160 -25.47638 0.00000 0.00000 0.00000 ; imides
6420 6428 6429 6430 3 33.20422 0.00000 -33.20422 0.00000 0.00000 0.00000 ; methylguanidinium ion
6421 6420 6428 6429 3 33.20422 0.00000 -33.20422 0.00000 0.00000 0.00000 ; methylguanidinium ion
6422 6423 7686 7685 3 1.58992 4.76976 0.00000 -6.35968 0.00000 0.00000
6422 6423 7686 7687 3 1.58992 4.76976 0.00000 -6.35968 0.00000 0.00000
6422 6423 7686 7688 3 1.58992 4.76976 0.00000 -6.35968 0.00000 0.00000
6423 7686 7685 7684 3 1.78866 3.49154 0.53555 -5.81576 0.00000 0.00000
6423 7686 7685 7689 3 -1.26775 3.02085 1.74473 -3.49782 0.00000 0.00000
6428 6420 6421 6422 3 33.20422 0.00000 -33.20422 0.00000 0.00000 0.00000 ; methylguanidinium ion
6428 6420 6421 6426 3 20.50160 0.00000 -20.50160 0.00000 0.00000 0.00000 ; imides
6429 6411 6412 6413 3 33.20422 0.00000 -33.20422 0.00000 0.00000 0.00000 ; methylguanidinium ion
6429 6411 6412 6419 3 30.28798 -4.81160 -25.47638 0.00000 0.00000 0.00000 ; imides
6431 6432 12932 12931 3 1.58992 4.76976 0.00000 -6.35968 0.00000 0.00000
6431 6432 12932 12933 3 1.58992 4.76976 0.00000 -6.35968 0.00000 0.00000
6431 6432 12932 12934 3 1.58992 4.76976 0.00000 -6.35968 0.00000 0.00000
6432 12932 12931 12930 3 1.78866 3.49154 0.53555 -5.81576 0.00000 0.00000
6432 12932 12931 12935 3 -1.26775 3.02085 1.74473 -3.49782 0.00000 0.00000
6437 6438 6445 6446 3 30.28798 -4.81160 -25.47638 0.00000 0.00000 0.00000 ; imides
6437 6454 6455 6456 3 33.20422 0.00000 -33.20422 0.00000 0.00000 0.00000 ; methylguanidinium ion
6437 6454 6455 6460 3 20.50160 0.00000 -20.50160 0.00000 0.00000 0.00000 ; imides
6438 6437 6454 6453 3 30.28798 -4.81160 -25.47638 0.00000 0.00000 0.00000 ; imides
6438 6437 6454 6455 3 33.20422 0.00000 -33.20422 0.00000 0.00000 0.00000 ; methylguanidinium ion
6438 6445 6446 6447 3 33.20422 0.00000 -33.20422 0.00000 0.00000 0.00000 ; methylguanidinium ion
6438 6445 6446 6453 3 30.28798 -4.81160 -25.47638 0.00000 0.00000 0.00000 ; imides
6439 6438 6445 6446 3 33.20422 0.00000 -33.20422 0.00000 0.00000 0.00000 ; methylguanidinium ion
6440 235 234 233 3 1.58992 4.76976 0.00000 -6.35968 0.00000 0.00000
6440 235 234 236 3 1.58992 4.76976 0.00000 -6.35968 0.00000 0.00000
6440 235 234 237 3 1.58992 4.76976 0.00000 -6.35968 0.00000 0.00000
6445 6438 6439 6440 3 33.20422 0.00000 -33.20422 0.00000 0.00000 0.00000 ; methylguanidinium ion
6445 6438 6439 6443 3 20.50160 0.00000 -20.50160 0.00000 0.00000 0.00000 ; imides
6445 6446 6453 6454 3 30.28798 -4.81160 -25.47638 0.00000 0.00000 0.00000 ; imides
6446 6453 6454 6437 3 30.28798 -4.81160 -25.47638 0.00000 0.00000 0.00000 ; imides
6446 6453 6454 6455 3 33.20422 0.00000 -33.20422 0.00000 0.00000 0.00000 ; methylguanidinium ion
6447 6446 6453 6454 3 33.20422 0.00000 -33.20422 0.00000 0.00000 0.00000 ; methylguanidinium ion
6448 4038 4037 4036 3 1.58992 4.76976 0.00000 -6.35968 0.00000 0.00000
6448 4038 4037 4039 3 1.58992 4.76976 0.00000 -6.35968 0.00000 0.00000
6448 4038 4037 4040 3 1.58992 4.76976 0.00000 -6.35968 0.00000 0.00000
6453 6446 6447 6448 3 33.20422 0.00000 -33.20422 0.00000 0.00000 0.00000 ; methylguanidinium ion
6453 6446 6447 6451 3 20.50160 0.00000 -20.50160 0.00000 0.00000 0.00000 ; imides
6454 6437 6438 6439 3 33.20422 0.00000 -33.20422 0.00000 0.00000 0.00000 ; methylguanidinium ion
6454 6437 6438 6445 3 30.28798 -4.81160 -25.47638 0.00000 0.00000 0.00000 ; imides
6456 6457 9995 9994 3 1.58992 4.76976 0.00000 -6.35968 0.00000 0.00000
6456 6457 9995 9996 3 1.58992 4.76976 0.00000 -6.35968 0.00000 0.00000
6456 6457 9995 9997 3 1.58992 4.76976 0.00000 -6.35968 0.00000 0.00000
6457 9995 9994 9993 3 1.78866 3.49154 0.53555 -5.81576 0.00000 0.00000
6457 9995 9994 9998 3 -1.26775 3.02085 1.74473 -3.49782 0.00000 0.00000
6462 6463 6472 6473 3 30.28798 -4.81160 -25.47638 0.00000 0.00000 0.00000 ; imides
6462 6483 6484 6485 3 33.20422 0.00000 -33.20422 0.00000 0.00000 0.00000 ; methylguanidinium ion
6462 6483 6484 6489 3 20.50160 0.00000 -20.50160 0.00000 0.00000 0.00000 ; imides
6463 6462 6483 6482 3 30.28798 -4.81160 -25.47638 0.00000 0.00000 0.00000 ; imides
6463 6462 6483 6484 3 33.20422 0.00000 -33.20422 0.00000 0.00000 0.00000 ; methylguanidinium ion
6463 6472 6473 6474 3 33.20422 0.00000 -33.20422 0.00000 0.00000 0.00000 ; methylguanidinium ion
6463 6472 6473 6482 3 30.28798 -4.81160 -25.47638 0.00000 0.00000 0.00000 ; imides
6464 6463 6472 6473 3 33.20422 0.00000 -33.20422 0.00000 0.00000 0.00000 ; methylguanidinium ion
6472 6463 6464 6465 3 33.20422 0.00000 -33.20422 0.00000 0.00000 0.00000 ; methylguanidinium ion
6472 6463 6464 6470 3 20.50160 0.00000 -20.50160 0.00000 0.00000 0.00000 ; imides
6472 6473 6482 6483 3 30.28798 -4.81160 -25.47638 0.00000 0.00000 0.00000 ; imides
6473 6482 6483 6462 3 30.28798 -4.81160 -25.47638 0.00000 0.00000 0.00000 ; imides
6473 6482 6483 6484 3 33.20422 0.00000 -33.20422 0.00000 0.00000 0.00000 ; methylguanidinium ion
6474 6473 6482 6483 3 33.20422 0.00000 -33.20422 0.00000 0.00000 0.00000 ; methylguanidinium ion
6482 6473 6474 6475 3 33.20422 0.00000 -33.20422 0.00000 0.00000 0.00000 ; methylguanidinium ion
6482 6473 6474 6480 3 20.50160 0.00000 -20.50160 0.00000 0.00000 0.00000 ; imides
6483 6462 6463 6464 3 33.20422 0.00000 -33.20422 0.00000 0.00000 0.00000 ; methylguanidinium ion
6483 6462 6463 6472 3 30.28798 -4.81160 -25.47638 0.00000 0.00000 0.00000 ; imides
6485 6486 11650 11649 3 1.58992 4.76976 0.00000 -6.35968 0.00000 0.00000
6485 6486 11650 11651 3 1.58992 4.76976 0.00000 -6.35968 0.00000 0.00000
6485 6486 11650 11652 3 1.58992 4.76976 0.00000 -6.35968 0.00000 0.00000
6486 11650 11649 11648 3 1.78866 3.49154 0.53555 -5.81576 0.00000 0.00000
6486 11650 11649 11653 3 -1.26775 3.02085 1.74473 -3.49782 0.00000 0.00000
6491 6492 6499 6500 3 30.28798 -4.81160 -25.47638 0.00000 0.00000 0.00000 ; imides
6491 6509 6510 6511 3 33.20422 0.00000 -33.20422 0.00000 0.00000 0.00000 ; methylguanidinium ion
6491 6509 6510 6515 3 20.50160 0.00000 -20.50160 0.00000 0.00000 0.00000 ; imides
6492 6491 6509 6508 3 30.28798 -4.81160 -25.47638 0.00000 0.00000 0.00000 ; imides
6492 6491 6509 6510 3 33.20422 0.00000 -33.20422 0.00000 0.00000 0.00000 ; methylguanidinium ion
6492 6499 6500 6501 3 33.20422 0.00000 -33.20422 0.00000 0.00000 0.00000 ; methylguanidinium ion
6492 6499 6500 6508 3 30.28798 -4.81160 -25.47638 0.00000 0.00000 0.00000 ; imides
6493 6492 6499 6500 3 33.20422 0.00000 -33.20422 0.00000 0.00000 0.00000 ; methylguanidinium ion
6494 4187 4186 4185 3 1.58992 4.76976 0.00000 -6.35968 0.00000 0.00000
6494 4187 4186 4188 3 1.58992 4.76976 0.00000 -6.35968 0.00000 0.00000
6494 4187 4186 4189 3 1.58992 4.76976 0.00000 -6.35968 0.00000 0.00000
6499 6492 6493 6494 3 33.20422 0.00000 -33.20422 0.00000 0.00000 0.00000 ; methylguanidinium ion
6499 6492 6493 6497 3 20.50160 0.00000 -20.50160 0.00000 0.00000 0.00000 ; imides
6499 6500 6508 6509 3 30.28798 -4.81160 -25.47638 0.00000 0.00000 0.00000 ; imides
6500 6508 6509 6491 3 30.28798 -4.81160 -25.47638 0.00000 0.00000 0.00000 ; imides
6500 6508 6509 6510 3 33.20422 0.00000 -33.20422 0.00000 0.00000 0.00000 ; methylguanidinium ion
6501 6500 6508 6509 3 33.20422 0.00000 -33.20422 0.00000 0.00000 0.00000 ; methylguanidinium ion
6502 6503 10760 10759 3 1.58992 4.76976 0.00000 -6.35968 0.00000 0.00000
6502 6503 10760 10761 3 1.58992 4.76976 0.00000 -6.35968 0.00000 0.00000
6502 6503 10760 10762 3 1.58992 4.76976 0.00000 -6.35968 0.00000 0.00000
6503 10760 10759 10758 3 1.78866 3.49154 0.53555 -5.81576 0.00000 0.00000
6503 10760 10759 10763 3 -1.26775 3.02085 1.74473 -3.49782 0.00000 0.00000
6508 6500 6501 6502 3 33.20422 0.00000 -33.20422 0.00000 0.00000 0.00000 ; methylguanidinium ion
6508 6500 6501 6506 3 20.50160 0.00000 -20.50160 0.00000 0.00000 0.00000 ; imides
6509 6491 6492 6493 3 33.20422 0.00000 -33.20422 0.00000 0.00000 0.00000 ; methylguanidinium ion
6509 6491 6492 6499 3 30.28798 -4.81160 -25.47638 0.00000 0.00000 0.00000 ; imides
6511 6512 10577 10576 3 1.58992 4.76976 0.00000 -6.35968 0.00000 0.00000
6511 6512 10577 10578 3 1.58992 4.76976 0.00000 -6.35968 0.00000 0.00000
6511 6512 10577 10579 3 1.58992 4.76976 0.00000 -6.35968 0.00000 0.00000
6512 10577 10576 10575 3 1.78866 3.49154 0.53555 -5.81576 0.00000 0.00000
6512 10577 10576 10580 3 -1.26775 3.02085 1.74473 -3.49782 0.00000 0.00000
6517 6518 6525 6526 3 30.28798 -4.81160 -25.47638 0.00000 0.00000 0.00000 ; imides
6517 6534 6535 6536 3 33.20422 0.00000 -33.20422 0.00000 0.00000 0.00000 ; methylguanidinium ion
6517 6534 6535 6540 3 20.50160 0.00000 -20.50160 0.00000 0.00000 0.00000 ; imides
6518 6517 6534 6533 3 30.28798 -4.81160 -25.47638 0.00000 0.00000 0.00000 ; imides
6518 6517 6534 6535 3 33.20422 0.00000 -33.20422 0.00000 0.00000 0.00000 ; methylguanidinium ion
6518 6525 6526 6527 3 33.20422 0.00000 -33.20422 0.00000 0.00000 0.00000 ; methylguanidinium ion
6518 6525 6526 6533 3 30.28798 -4.81160 -25.47638 0.00000 0.00000 0.00000 ; imides
6519 6518 6525 6526 3 33.20422 0.00000 -33.20422 0.00000 0.00000 0.00000 ; methylguanidinium ion
6520 599 598 597 3 1.58992 4.76976 0.00000 -6.35968 0.00000 0.00000
6520 599 598 600 3 1.58992 4.76976 0.00000 -6.35968 0.00000 0.00000
6520 599 598 601 3 1.58992 4.76976 0.00000 -6.35968 0.00000 0.00000
6525 6518 6519 6520 3 33.20422 0.00000 -33.20422 0.00000 0.00000 0.00000 ; methylguanidinium ion
6525 6518 6519 6523 3 20.50160 0.00000 -20.50160 0.00000 0.00000 0.00000 ; imides
6525 6526 6533 6534 3 30.28798 -4.81160 -25.47638 0.00000 0.00000 0.00000 ; imides
6526 6533 6534 6517 3 30.28798 -4.81160 -25.47638 0.00000 0.00000 0.00000 ; imides
6526 6533 6534 6535 3 33.20422 0.00000 -33.20422 0.00000 0.00000 0.00000 ; methylguanidinium ion
6527 6526 6533 6534 3 33.20422 0.00000 -33.20422 0.00000 0.00000 0.00000 ; methylguanidinium ion
6528 791 790 789 3 1.58992 4.76976 0.00000 -6.35968 0.00000 0.00000
6528 791 790 792 3 1.58992 4.76976 0.00000 -6.35968 0.00000 0.00000
6528 791 790 793 3 1.58992 4.76976 0.00000 -6.35968 0.00000 0.00000
6533 6526 6527 6528 3 33.20422 0.00000 -33.20422 0.00000 0.00000 0.00000 ; methylguanidinium ion
6533 6526 6527 6531 3 20.50160 0.00000 -20.50160 0.00000 0.00000 0.00000 ; imides
6534 6517 6518 6519 3 33.20422 0.00000 -33.20422 0.00000 0.00000 0.00000 ; methylguanidinium ion
6534 6517 6518 6525 3 30.28798 -4.81160 -25.47638 0.00000 0.00000 0.00000 ; imides
6536 6537 8314 8313 3 1.58992 4.76976 0.00000 -6.35968 0.00000 0.00000
6536 6537 8314 8315 3 1.58992 4.76976 0.00000 -6.35968 0.00000 0.00000
6536 6537 8314 8316 3 1.58992 4.76976 0.00000 -6.35968 0.00000 0.00000
6537 8314 8313 8312 3 1.78866 3.49154 0.53555 -5.81576 0.00000 0.00000
6537 8314 8313 8317 3 -1.26775 3.02085 1.74473 -3.49782 0.00000 0.00000
6542 6543 6550 6551 3 30.28798 -4.81160 -25.47638 0.00000 0.00000 0.00000 ; imides
6542 6559 6560 6561 3 33.20422 0.00000 -33.20422 0.00000 0.00000 0.00000 ; methylguanidinium ion
6542 6559 6560 6565 3 20.50160 0.00000 -20.50160 0.00000 0.00000 0.00000 ; imides
6543 6542 6559 6558 3 30.28798 -4.81160 -25.47638 0.00000 0.00000 0.00000 ; imides
6543 6542 6559 6560 3 33.20422 0.00000 -33.20422 0.00000 0.00000 0.00000 ; methylguanidinium ion
6543 6550 6551 6552 3 33.20422 0.00000 -33.20422 0.00000 0.00000 0.00000 ; methylguanidinium ion
6543 6550 6551 6558 3 30.28798 -4.81160 -25.47638 0.00000 0.00000 0.00000 ; imides
6544 6543 6550 6551 3 33.20422 0.00000 -33.20422 0.00000 0.00000 0.00000 ; methylguanidinium ion
6545 4243 4242 4241 3 1.58992 4.76976 0.00000 -6.35968 0.00000 0.00000
6545 4243 4242 4244 3 1.58992 4.76976 0.00000 -6.35968 0.00000 0.00000
6545 4243 4242 4245 3 1.58992 4.76976 0.00000 -6.35968 0.00000 0.00000
6550 6543 6544 6545 3 33.20422 0.00000 -33.20422 0.00000 0.00000 0.00000 ; methylguanidinium ion
6550 6543 6544 6548 3 20.50160 0.00000 -20.50160 0.00000 0.00000 0.00000 ; imides
6550 6551 6558 6559 3 30.28798 -4.81160 -25.47638 0.00000 0.00000 0.00000 ; imides
6551 6558 6559 6542 3 30.28798 -4.81160 -25.47638 0.00000 0.00000 0.00000 ; imides
6551 6558 6559 6560 3 33.20422 0.00000 -33.20422 0.00000 0.00000 0.00000 ; methylguanidinium ion
6552 6551 6558 6559 3 33.20422 0.00000 -33.20422 0.00000 0.00000 0.00000 ; methylguanidinium ion
6553 3300 3299 3298 3 1.58992 4.76976 0.00000 -6.35968 0.00000 0.00000
6553 3300 3299 3301 3 1.58992 4.76976 0.00000 -6.35968 0.00000 0.00000
6553 3300 3299 3302 3 1.58992 4.76976 0.00000 -6.35968 0.00000 0.00000
6558 6551 6552 6553 3 33.20422 0.00000 -33.20422 0.00000 0.00000 0.00000 ; methylguanidinium ion
6558 6551 6552 6556 3 20.50160 0.00000 -20.50160 0.00000 0.00000 0.00000 ; imides
6559 6542 6543 6544 3 33.20422 0.00000 -33.20422 0.00000 0.00000 0.00000 ; methylguanidinium ion
6559 6542 6543 6550 3 30.28798 -4.81160 -25.47638 0.00000 0.00000 0.00000 ; imides
6561 6562 12544 12543 3 1.58992 4.76976 0.00000 -6.35968 0.00000 0.00000
6561 6562 12544 12545 3 1.58992 4.76976 0.00000 -6.35968 0.00000 0.00000
6561 6562 12544 12546 3 1.58992 4.76976 0.00000 -6.35968 0.00000 0.00000
6562 12544 12543 12542 3 1.78866 3.49154 0.53555 -5.81576 0.00000 0.00000
6562 12544 12543 12547 3 -1.26775 3.02085 1.74473 -3.49782 0.00000 0.00000
6567 6568 6576 6577 3 30.28798 -4.81160 -25.47638 0.00000 0.00000 0.00000 ; imides
6567 6585 6586 6587 3 33.20422 0.00000 -33.20422 0.00000 0.00000 0.00000 ; methylguanidinium ion
6567 6585 6586 6590 3 20.50160 0.00000 -20.50160 0.00000 0.00000 0.00000 ; imides
6568 6567 6585 6584 3 30.28798 -4.81160 -25.47638 0.00000 0.00000 0.00000 ; imides
6568 6567 6585 6586 3 33.20422 0.00000 -33.20422 0.00000 0.00000 0.00000 ; methylguanidinium ion
6568 6576 6577 6578 3 33.20422 0.00000 -33.20422 0.00000 0.00000 0.00000 ; methylguanidinium ion
6568 6576 6577 6584 3 30.28798 -4.81160 -25.47638 0.00000 0.00000 0.00000 ; imides
6569 6568 6576 6577 3 33.20422 0.00000 -33.20422 0.00000 0.00000 0.00000 ; methylguanidinium ion
6570 6571 11658 11657 3 1.58992 4.76976 0.00000 -6.35968 0.00000 0.00000
6570 6571 11658 11659 3 1.58992 4.76976 0.00000 -6.35968 0.00000 0.00000
6570 6571 11658 11660 3 1.58992 4.76976 0.00000 -6.35968 0.00000 0.00000
6571 11658 11657 11656 3 1.78866 3.49154 0.53555 -5.81576 0.00000 0.00000
6571 11658 11657 11661 3 -1.26775 3.02085 1.74473 -3.49782 0.00000 0.00000
6576 6568 6569 6570 3 33.20422 0.00000 -33.20422 0.00000 0.00000 0.00000 ; methylguanidinium ion
6576 6568 6569 6574 3 20.50160 0.00000 -20.50160 0.00000 0.00000 0.00000 ; imides
6576 6577 6584 6585 3 30.28798 -4.81160 -25.47638 0.00000 0.00000 0.00000 ; imides
6577 6584 6585 6567 3 30.28798 -4.81160 -25.47638 0.00000 0.00000 0.00000 ; imides
6577 6584 6585 6586 3 33.20422 0.00000 -33.20422 0.00000 0.00000 0.00000 ; methylguanidinium ion
6578 6577 6584 6585 3 33.20422 0.00000 -33.20422 0.00000 0.00000 0.00000 ; methylguanidinium ion
6579 5817 5816 5815 3 1.58992 4.76976 0.00000 -6.35968 0.00000 0.00000
6579 5817 5816 5818 3 1.58992 4.76976 0.00000 -6.35968 0.00000 0.00000
6579 5817 5816 5819 3 1.58992 4.76976 0.00000 -6.35968 0.00000 0.00000
6584 6577 6578 6579 3 33.20422 0.00000 -33.20422 0.00000 0.00000 0.00000 ; methylguanidinium ion
6584 6577 6578 6582 3 20.50160 0.00000 -20.50160 0.00000 0.00000 0.00000 ; imides
6585 6567 6568 6569 3 33.20422 0.00000 -33.20422 0.00000 0.00000 0.00000 ; methylguanidinium ion
6585 6567 6568 6576 3 30.28798 -4.81160 -25.47638 0.00000 0.00000 0.00000 ; imides
6587 1754 1753 1752 3 1.58992 4.76976 0.00000 -6.35968 0.00000 0.00000
6587 1754 1753 1755 3 1.58992 4.76976 0.00000 -6.35968 0.00000 0.00000
6587 1754 1753 1756 3 1.58992 4.76976 0.00000 -6.35968 0.00000 0.00000
6592 6593 6601 6602 3 30.28798 -4.81160 -25.47638 0.00000 0.00000 0.00000 ; imides
6592 6610 6611 6612 3 33.20422 0.00000 -33.20422 0.00000 0.00000 0.00000 ; methylguanidinium ion
6592 6610 6611 6615 3 20.50160 0.00000 -20.50160 0.00000 0.00000 0.00000 ; imides
6593 6592 6610 6609 3 30.28798 -4.81160 -25.47638 0.00000 0.00000 0.00000 ; imides
6593 6592 6610 6611 3 33.20422 0.00000 -33.20422 0.00000 0.00000 0.00000 ; methylguanidinium ion
6593 6601 6602 6603 3 33.20422 0.00000 -33.20422 0.00000 0.00000 0.00000 ; methylguanidinium ion
6593 6601 6602 6609 3 30.28798 -4.81160 -25.47638 0.00000 0.00000 0.00000 ; imides
6594 6593 6601 6602 3 33.20422 0.00000 -33.20422 0.00000 0.00000 0.00000 ; methylguanidinium ion
6595 6596 10609 10608 3 1.58992 4.76976 0.00000 -6.35968 0.00000 0.00000
6595 6596 10609 10610 3 1.58992 4.76976 0.00000 -6.35968 0.00000 0.00000
6595 6596 10609 10611 3 1.58992 4.76976 0.00000 -6.35968 0.00000 0.00000
6596 10609 10608 10607 3 1.78866 3.49154 0.53555 -5.81576 0.00000 0.00000
6596 10609 10608 10612 3 -1.26775 3.02085 1.74473 -3.49782 0.00000 0.00000
6601 6593 6594 6595 3 33.20422 0.00000 -33.20422 0.00000 0.00000 0.00000 ; methylguanidinium ion
6601 6593 6594 6599 3 20.50160 0.00000 -20.50160 0.00000 0.00000 0.00000 ; imides
6601 6602 6609 6610 3 30.28798 -4.81160 -25.47638 0.00000 0.00000 0.00000 ; imides
6602 6609 6610 6592 3 30.28798 -4.81160 -25.47638 0.00000 0.00000 0.00000 ; imides
6602 6609 6610 6611 3 33.20422 0.00000 -33.20422 0.00000 0.00000 0.00000 ; methylguanidinium ion
6603 6602 6609 6610 3 33.20422 0.00000 -33.20422 0.00000 0.00000 0.00000 ; methylguanidinium ion
6604 4117 4116 4115 3 1.58992 4.76976 0.00000 -6.35968 0.00000 0.00000
6604 4117 4116 4118 3 1.58992 4.76976 0.00000 -6.35968 0.00000 0.00000
6604 4117 4116 4119 3 1.58992 4.76976 0.00000 -6.35968 0.00000 0.00000
6609 6602 6603 6604 3 33.20422 0.00000 -33.20422 0.00000 0.00000 0.00000 ; methylguanidinium ion
6609 6602 6603 6607 3 20.50160 0.00000 -20.50160 0.00000 0.00000 0.00000 ; imides
6610 6592 6593 6594 3 33.20422 0.00000 -33.20422 0.00000 0.00000 0.00000 ; methylguanidinium ion
6610 6592 6593 6601 3 30.28798 -4.81160 -25.47638 0.00000 0.00000 0.00000 ; imides
6612 2748 2747 2746 3 1.58992 4.76976 0.00000 -6.35968 0.00000 0.00000
6612 2748 2747 2749 3 1.58992 4.76976 0.00000 -6.35968 0.00000 0.00000
6612 2748 2747 2750 3 1.58992 4.76976 0.00000 -6.35968 0.00000 0.00000
6617 6618 6625 6626 3 30.28798 -4.81160 -25.47638 0.00000 0.00000 0.00000 ; imides
6617 6635 6636 6637 3 33.20422 0.00000 -33.20422 0.00000 0.00000 0.00000 ; methylguanidinium ion
6617 6635 6636 6640 3 20.50160 0.00000 -20.50160 0.00000 0.00000 0.00000 ; imides
6618 6617 6635 6634 3 30.28798 -4.81160 -25.47638 0.00000 0.00000 0.00000 ; imides
6618 6617 6635 6636 3 33.20422 0.00000 -33.20422 0.00000 0.00000 0.00000 ; methylguanidinium ion
6618 6625 6626 6627 3 33.20422 0.00000 -33.20422 0.00000 0.00000 0.00000 ; methylguanidinium ion
6618 6625 6626 6634 3 30.28798 -4.81160 -25.47638 0.00000 0.00000 0.00000 ; imides
6619 6618 6625 6626 3 33.20422 0.00000 -33.20422 0.00000 0.00000 0.00000 ; methylguanidinium ion
6620 2400 2399 2398 3 1.58992 4.76976 0.00000 -6.35968 0.00000 0.00000
6620 2400 2399 2401 3 1.58992 4.76976 0.00000 -6.35968 0.00000 0.00000
6620 2400 2399 2402 3 1.58992 4.76976 0.00000 -6.35968 0.00000 0.00000
6625 6618 6619 6620 3 33.20422 0.00000 -33.20422 0.00000 0.00000 0.00000 ; methylguanidinium ion
6625 6618 6619 6623 3 20.50160 0.00000 -20.50160 0.00000 0.00000 0.00000 ; imides
6625 6626 6634 6635 3 30.28798 -4.81160 -25.47638 0.00000 0.00000 0.00000 ; imides
6626 6634 6635 6617 3 30.28798 -4.81160 -25.47638 0.00000 0.00000 0.00000 ; imides
6626 6634 6635 6636 3 33.20422 0.00000 -33.20422 0.00000 0.00000 0.00000 ; methylguanidinium ion
6627 6626 6634 6635 3 33.20422 0.00000 -33.20422 0.00000 0.00000 0.00000 ; methylguanidinium ion
6628 6629 6661 6660 3 1.58992 4.76976 0.00000 -6.35968 0.00000 0.00000
6628 6629 6661 6662 3 1.58992 4.76976 0.00000 -6.35968 0.00000 0.00000
6628 6629 6661 6663 3 1.58992 4.76976 0.00000 -6.35968 0.00000 0.00000
6629 6661 6660 6659 3 1.78866 3.49154 0.53555 -5.81576 0.00000 0.00000
6629 6661 6660 6664 3 -1.26775 3.02085 1.74473 -3.49782 0.00000 0.00000
6634 6626 6627 6628 3 33.20422 0.00000 -33.20422 0.00000 0.00000 0.00000 ; methylguanidinium ion
6634 6626 6627 6632 3 20.50160 0.00000 -20.50160 0.00000 0.00000 0.00000 ; imides
6635 6617 6618 6619 3 33.20422 0.00000 -33.20422 0.00000 0.00000 0.00000 ; methylguanidinium ion
6635 6617 6618 6625 3 30.28798 -4.81160 -25.47638 0.00000 0.00000 0.00000 ; imides
6637 2913 2912 2911 3 1.58992 4.76976 0.00000 -6.35968 0.00000 0.00000
6637 2913 2912 2914 3 1.58992 4.76976 0.00000 -6.35968 0.00000 0.00000
6637 2913 2912 2915 3 1.58992 4.76976 0.00000 -6.35968 0.00000 0.00000
6642 6643 6650 6651 3 30.28798 -4.81160 -25.47638 0.00000 0.00000 0.00000 ; imides
6642 6659 6660 6661 3 33.20422 0.00000 -33.20422 0.00000 0.00000 0.00000 ; methylguanidinium ion
6642 6659 6660 6664 3 20.50160 0.00000 -20.50160 0.00000 0.00000 0.00000 ; imides
6643 6642 6659 6658 3 30.28798 -4.81160 -25.47638 0.00000 0.00000 0.00000 ; imides
6643 6642 6659 6660 3 33.20422 0.00000 -33.20422 0.00000 0.00000 0.00000 ; methylguanidinium ion
6643 6650 6651 6652 3 33.20422 0.00000 -33.20422 0.00000 0.00000 0.00000 ; methylguanidinium ion
6643 6650 6651 6658 3 30.28798 -4.81160 -25.47638 0.00000 0.00000 0.00000 ; imides
6644 6643 6650 6651 3 33.20422 0.00000 -33.20422 0.00000 0.00000 0.00000 ; methylguanidinium ion
6645 3563 3562 3561 3 1.58992 4.76976 0.00000 -6.35968 0.00000 0.00000
6645 3563 3562 3564 3 1.58992 4.76976 0.00000 -6.35968 0.00000 0.00000
6645 3563 3562 3565 3 1.58992 4.76976 0.00000 -6.35968 0.00000 0.00000
6650 6643 6644 6645 3 33.20422 0.00000 -33.20422 0.00000 0.00000 0.00000 ; methylguanidinium ion
6650 6643 6644 6648 3 20.50160 0.00000 -20.50160 0.00000 0.00000 0.00000 ; imides
6650 6651 6658 6659 3 30.28798 -4.81160 -25.47638 0.00000 0.00000 0.00000 ; imides
6651 6658 6659 6642 3 30.28798 -4.81160 -25.47638 0.00000 0.00000 0.00000 ; imides
6651 6658 6659 6660 3 33.20422 0.00000 -33.20422 0.00000 0.00000 0.00000 ; methylguanidinium ion
6652 6651 6658 6659 3 33.20422 0.00000 -33.20422 0.00000 0.00000 0.00000 ; methylguanidinium ion
6653 2896 2895 2894 3 1.58992 4.76976 0.00000 -6.35968 0.00000 0.00000
6653 2896 2895 2897 3 1.58992 4.76976 0.00000 -6.35968 0.00000 0.00000
6653 2896 2895 2898 3 1.58992 4.76976 0.00000 -6.35968 0.00000 0.00000
6658 6651 6652 6653 3 33.20422 0.00000 -33.20422 0.00000 0.00000 0.00000 ; methylguanidinium ion
6658 6651 6652 6656 3 20.50160 0.00000 -20.50160 0.00000 0.00000 0.00000 ; imides
6659 6642 6643 6644 3 33.20422 0.00000 -33.20422 0.00000 0.00000 0.00000 ; methylguanidinium ion
6659 6642 6643 6650 3 30.28798 -4.81160 -25.47638 0.00000 0.00000 0.00000 ; imides
6661 6629 6628 6627 3 1.58992 4.76976 0.00000 -6.35968 0.00000 0.00000
6661 6629 6628 6630 3 1.58992 4.76976 0.00000 -6.35968 0.00000 0.00000
6661 6629 6628 6631 3 1.58992 4.76976 0.00000 -6.35968 0.00000 0.00000
6666 6667 6674 6675 3 30.28798 -4.81160 -25.47638 0.00000 0.00000 0.00000 ; imides
6666 6683 6684 6685 3 33.20422 0.00000 -33.20422 0.00000 0.00000 0.00000 ; methylguanidinium ion
6666 6683 6684 6689 3 20.50160 0.00000 -20.50160 0.00000 0.00000 0.00000 ; imides
6667 6666 6683 6682 3 30.28798 -4.81160 -25.47638 0.00000 0.00000 0.00000 ; imides
6667 6666 6683 6684 3 33.20422 0.00000 -33.20422 0.00000 0.00000 0.00000 ; methylguanidinium ion
6667 6674 6675 6676 3 33.20422 0.00000 -33.20422 0.00000 0.00000 0.00000 ; methylguanidinium ion
6667 6674 6675 6682 3 30.28798 -4.81160 -25.47638 0.00000 0.00000 0.00000 ; imides
6668 6667 6674 6675 3 33.20422 0.00000 -33.20422 0.00000 0.00000 0.00000 ; methylguanidinium ion
6669 3419 3418 3417 3 1.58992 4.76976 0.00000 -6.35968 0.00000 0.00000
6669 3419 3418 3420 3 1.58992 4.76976 0.00000 -6.35968 0.00000 0.00000
6669 3419 3418 3421 3 1.58992 4.76976 0.00000 -6.35968 0.00000 0.00000
6674 6667 6668 6669 3 33.20422 0.00000 -33.20422 0.00000 0.00000 0.00000 ; methylguanidinium ion
6674 6667 6668 6672 3 20.50160 0.00000 -20.50160 0.00000 0.00000 0.00000 ; imides
6674 6675 6682 6683 3 30.28798 -4.81160 -25.47638 0.00000 0.00000 0.00000 ; imides
6675 6682 6683 6666 3 30.28798 -4.81160 -25.47638 0.00000 0.00000 0.00000 ; imides
6675 6682 6683 6684 3 33.20422 0.00000 -33.20422 0.00000 0.00000 0.00000 ; methylguanidinium ion
6676 6675 6682 6683 3 33.20422 0.00000 -33.20422 0.00000 0.00000 0.00000 ; methylguanidinium ion
6677 2146 2145 2144 3 1.58992 4.76976 0.00000 -6.35968 0.00000 0.00000
6677 2146 2145 2147 3 1.58992 4.76976 0.00000 -6.35968 0.00000 0.00000
6677 2146 2145 2148 3 1.58992 4.76976 0.00000 -6.35968 0.00000 0.00000
6682 6675 6676 6677 3 33.20422 0.00000 -33.20422 0.00000 0.00000 0.00000 ; methylguanidinium ion
6682 6675 6676 6680 3 20.50160 0.00000 -20.50160 0.00000 0.00000 0.00000 ; imides
6683 6666 6667 6668 3 33.20422 0.00000 -33.20422 0.00000 0.00000 0.00000 ; methylguanidinium ion
6683 6666 6667 6674 3 30.28798 -4.81160 -25.47638 0.00000 0.00000 0.00000 ; imides
6685 6686 12298 12297 3 1.58992 4.76976 0.00000 -6.35968 0.00000 0.00000
6685 6686 12298 12299 3 1.58992 4.76976 0.00000 -6.35968 0.00000 0.00000
6685 6686 12298 12300 3 1.58992 4.76976 0.00000 -6.35968 0.00000 0.00000
6686 12298 12297 12296 3 1.78866 3.49154 0.53555 -5.81576 0.00000 0.00000
6686 12298 12297 12301 3 -1.26775 3.02085 1.74473 -3.49782 0.00000 0.00000
6691 6692 6700 6701 3 30.28798 -4.81160 -25.47638 0.00000 0.00000 0.00000 ; imides
6691 6710 6711 6712 3 33.20422 0.00000 -33.20422 0.00000 0.00000 0.00000 ; methylguanidinium ion
6691 6710 6711 6715 3 20.50160 0.00000 -20.50160 0.00000 0.00000 0.00000 ; imides
6692 6691 6710 6709 3 30.28798 -4.81160 -25.47638 0.00000 0.00000 0.00000 ; imides
6692 6691 6710 6711 3 33.20422 0.00000 -33.20422 0.00000 0.00000 0.00000 ; methylguanidinium ion
6692 6700 6701 6702 3 33.20422 0.00000 -33.20422 0.00000 0.00000 0.00000 ; methylguanidinium ion
6692 6700 6701 6709 3 30.28798 -4.81160 -25.47638 0.00000 0.00000 0.00000 ; imides
6693 6692 6700 6701 3 33.20422 0.00000 -33.20422 0.00000 0.00000 0.00000 ; methylguanidinium ion
6694 6695 8473 8472 3 1.58992 4.76976 0.00000 -6.35968 0.00000 0.00000
6694 6695 8473 8474 3 1.58992 4.76976 0.00000 -6.35968 0.00000 0.00000
6694 6695 8473 8475 3 1.58992 4.76976 0.00000 -6.35968 0.00000 0.00000
6695 8473 8472 8471 3 1.78866 3.49154 0.53555 -5.81576 0.00000 0.00000
6695 8473 8472 8476 3 -1.26775 3.02085 1.74473 -3.49782 0.00000 0.00000
6700 6692 6693 6694 3 33.20422 0.00000 -33.20422 0.00000 0.00000 0.00000 ; methylguanidinium ion
6700 6692 6693 6698 3 20.50160 0.00000 -20.50160 0.00000 0.00000 0.00000 ; imides
6700 6701 6709 6710 3 30.28798 -4.81160 -25.47638 0.00000 0.00000 0.00000 ; imides
6701 6709 6710 6691 3 30.28798 -4.81160 -25.47638 0.00000 0.00000 0.00000 ; imides
6701 6709 6710 6711 3 33.20422 0.00000 -33.20422 0.00000 0.00000 0.00000 ; methylguanidinium ion
6702 6701 6709 6710 3 33.20422 0.00000 -33.20422 0.00000 0.00000 0.00000 ; methylguanidinium ion
6703 6704 10061 10060 3 1.58992 4.76976 0.00000 -6.35968 0.00000 0.00000
6703 6704 10061 10062 3 1.58992 4.76976 0.00000 -6.35968 0.00000 0.00000
6703 6704 10061 10063 3 1.58992 4.76976 0.00000 -6.35968 0.00000 0.00000
6704 10061 10060 10059 3 1.78866 3.49154 0.53555 -5.81576 0.00000 0.00000
6704 10061 10060 10064 3 -1.26775 3.02085 1.74473 -3.49782 0.00000 0.00000
6709 6701 6702 6703 3 33.20422 0.00000 -33.20422 0.00000 0.00000 0.00000 ; methylguanidinium ion
6709 6701 6702 6707 3 20.50160 0.00000 -20.50160 0.00000 0.00000 0.00000 ; imides
6710 6691 6692 6693 3 33.20422 0.00000 -33.20422 0.00000 0.00000 0.00000 ; methylguanidinium ion
6710 6691 6692 6700 3 30.28798 -4.81160 -25.47638 0.00000 0.00000 0.00000 ; imides
6712 5188 5187 5186 3 1.58992 4.76976 0.00000 -6.35968 0.00000 0.00000
6712 5188 5187 5189 3 1.58992 4.76976 0.00000 -6.35968 0.00000 0.00000
6712 5188 5187 5190 3 1.58992 4.76976 0.00000 -6.35968 0.00000 0.00000
6717 6718 6726 6727 3 30.28798 -4.81160 -25.47638 0.00000 0.00000 0.00000 ; imides
6717 6736 6737 6738 3 33.20422 0.00000 -33.20422 0.00000 0.00000 0.00000 ; methylguanidinium ion
6717 6736 6737 6741 3 20.50160 0.00000 -20.50160 0.00000 0.00000 0.00000 ; imides
6718 6717 6736 6735 3 30.28798 -4.81160 -25.47638 0.00000 0.00000 0.00000 ; imides
6718 6717 6736 6737 3 33.20422 0.00000 -33.20422 0.00000 0.00000 0.00000 ; methylguanidinium ion
6718 6726 6727 6728 3 33.20422 0.00000 -33.20422 0.00000 0.00000 0.00000 ; methylguanidinium ion
6718 6726 6727 6735 3 30.28798 -4.81160 -25.47638 0.00000 0.00000 0.00000 ; imides
6719 6718 6726 6727 3 33.20422 0.00000 -33.20422 0.00000 0.00000 0.00000 ; methylguanidinium ion
6720 6721 11465 11464 3 1.58992 4.76976 0.00000 -6.35968 0.00000 0.00000
6720 6721 11465 11466 3 1.58992 4.76976 0.00000 -6.35968 0.00000 0.00000
6720 6721 11465 11467 3 1.58992 4.76976 0.00000 -6.35968 0.00000 0.00000
6721 11465 11464 11463 3 1.78866 3.49154 0.53555 -5.81576 0.00000 0.00000
6721 11465 11464 11468 3 -1.26775 3.02085 1.74473 -3.49782 0.00000 0.00000
6726 6718 6719 6720 3 33.20422 0.00000 -33.20422 0.00000 0.00000 0.00000 ; methylguanidinium ion
6726 6718 6719 6724 3 20.50160 0.00000 -20.50160 0.00000 0.00000 0.00000 ; imides
6726 6727 6735 6736 3 30.28798 -4.81160 -25.47638 0.00000 0.00000 0.00000 ; imides
6727 6735 6736 6717 3 30.28798 -4.81160 -25.47638 0.00000 0.00000 0.00000 ; imides
6727 6735 6736 6737 3 33.20422 0.00000 -33.20422 0.00000 0.00000 0.00000 ; methylguanidinium ion
6728 6727 6735 6736 3 33.20422 0.00000 -33.20422 0.00000 0.00000 0.00000 ; methylguanidinium ion
6729 6730 8666 8665 3 1.58992 4.76976 0.00000 -6.35968 0.00000 0.00000
6729 6730 8666 8667 3 1.58992 4.76976 0.00000 -6.35968 0.00000 0.00000
6729 6730 8666 8668 3 1.58992 4.76976 0.00000 -6.35968 0.00000 0.00000
6730 8666 8665 8664 3 1.78866 3.49154 0.53555 -5.81576 0.00000 0.00000
6730 8666 8665 8669 3 -1.26775 3.02085 1.74473 -3.49782 0.00000 0.00000
6735 6727 6728 6729 3 33.20422 0.00000 -33.20422 0.00000 0.00000 0.00000 ; methylguanidinium ion
6735 6727 6728 6733 3 20.50160 0.00000 -20.50160 0.00000 0.00000 0.00000 ; imides
6736 6717 6718 6719 3 33.20422 0.00000 -33.20422 0.00000 0.00000 0.00000 ; methylguanidinium ion
6736 6717 6718 6726 3 30.28798 -4.81160 -25.47638 0.00000 0.00000 0.00000 ; imides
6738 5737 5736 5735 3 1.58992 4.76976 0.00000 -6.35968 0.00000 0.00000
6738 5737 5736 5738 3 1.58992 4.76976 0.00000 -6.35968 0.00000 0.00000
6738 5737 5736 5739 3 1.58992 4.76976 0.00000 -6.35968 0.00000 0.00000
6743 6744 6751 6752 3 30.28798 -4.81160 -25.47638 0.00000 0.00000 0.00000 ; imides
6743 6761 6762 6763 3 33.20422 0.00000 -33.20422 0.00000 0.00000 0.00000 ; methylguanidinium ion
6743 6761 6762 6767 3 20.50160 0.00000 -20.50160 0.00000 0.00000 0.00000 ; imides
6744 6743 6761 6760 3 30.28798 -4.81160 -25.47638 0.00000 0.00000 0.00000 ; imides
6744 6743 6761 6762 3 33.20422 0.00000 -33.20422 0.00000 0.00000 0.00000 ; methylguanidinium ion
6744 6751 6752 6753 3 33.20422 0.00000 -33.20422 0.00000 0.00000 0.00000 ; methylguanidinium ion
6744 6751 6752 6760 3 30.28798 -4.81160 -25.47638 0.00000 0.00000 0.00000 ; imides
6745 6744 6751 6752 3 33.20422 0.00000 -33.20422 0.00000 0.00000 0.00000 ; methylguanidinium ion
6746 5746 5745 5744 3 1.58992 4.76976 0.00000 -6.35968 0.00000 0.00000
6746 5746 5745 5747 3 1.58992 4.76976 0.00000 -6.35968 0.00000 0.00000
6746 5746 5745 5748 3 1.58992 4.76976 0.00000 -6.35968 0.00000 0.00000
6751 6744 6745 6746 3 33.20422 0.00000 -33.20422 0.00000 0.00000 0.00000 ; methylguanidinium ion
6751 6744 6745 6749 3 20.50160 0.00000 -20.50160 0.00000 0.00000 0.00000 ; imides
6751 6752 6760 6761 3 30.28798 -4.81160 -25.47638 0.00000 0.00000 0.00000 ; imides
6752 6760 6761 6743 3 30.28798 -4.81160 -25.47638 0.00000 0.00000 0.00000 ; imides
6752 6760 6761 6762 3 33.20422 0.00000 -33.20422 0.00000 0.00000 0.00000 ; methylguanidinium ion
6753 6752 6760 6761 3 33.20422 0.00000 -33.20422 0.00000 0.00000 0.00000 ; methylguanidinium ion
6754 6755 6858 6857 3 1.58992 4.76976 0.00000 -6.35968 0.00000 0.00000
6754 6755 6858 6859 3 1.58992 4.76976 0.00000 -6.35968 0.00000 0.00000
6754 6755 6858 6860 3 1.58992 4.76976 0.00000 -6.35968 0.00000 0.00000
6755 6858 6857 6856 3 1.78866 3.49154 0.53555 -5.81576 0.00000 0.00000
6755 6858 6857 6861 3 -1.26775 3.02085 1.74473 -3.49782 0.00000 0.00000
6760 6752 6753 6754 3 33.20422 0.00000 -33.20422 0.00000 0.00000 0.00000 ; methylguanidinium ion
6760 6752 6753 6758 3 20.50160 0.00000 -20.50160 0.00000 0.00000 0.00000 ; imides
6761 6743 6744 6745 3 33.20422 0.00000 -33.20422 0.00000 0.00000 0.00000 ; methylguanidinium ion
6761 6743 6744 6751 3 30.28798 -4.81160 -25.47638 0.00000 0.00000 0.00000 ; imides
6763 6764 8691 8690 3 1.58992 4.76976 0.00000 -6.35968 0.00000 0.00000
6763 6764 8691 8692 3 1.58992 4.76976 0.00000 -6.35968 0.00000 0.00000
6763 6764 8691 8693 3 1.58992 4.76976 0.00000 -6.35968 0.00000 0.00000
6764 8691 8690 8689 3 1.78866 3.49154 0.53555 -5.81576 0.00000 0.00000
6764 8691 8690 8694 3 -1.26775 3.02085 1.74473 -3.49782 0.00000 0.00000
6769 6770 6778 6779 3 30.28798 -4.81160 -25.47638 0.00000 0.00000 0.00000 ; imides
6769 6787 6788 6789 3 33.20422 0.00000 -33.20422 0.00000 0.00000 0.00000 ; methylguanidinium ion
6769 6787 6788 6792 3 20.50160 0.00000 -20.50160 0.00000 0.00000 0.00000 ; imides
6770 6769 6787 6786 3 30.28798 -4.81160 -25.47638 0.00000 0.00000 0.00000 ; imides
6770 6769 6787 6788 3 33.20422 0.00000 -33.20422 0.00000 0.00000 0.00000 ; methylguanidinium ion
6770 6778 6779 6780 3 33.20422 0.00000 -33.20422 0.00000 0.00000 0.00000 ; methylguanidinium ion
6770 6778 6779 6786 3 30.28798 -4.81160 -25.47638 0.00000 0.00000 0.00000 ; imides
6771 6770 6778 6779 3 33.20422 0.00000 -33.20422 0.00000 0.00000 0.00000 ; methylguanidinium ion
6772 6773 9089 9088 3 1.58992 4.76976 0.00000 -6.35968 0.00000 0.00000
6772 6773 9089 9090 3 1.58992 4.76976 0.00000 -6.35968 0.00000 0.00000
6772 6773 9089 9091 3 1.58992 4.76976 0.00000 -6.35968 0.00000 0.00000
6773 9089 9088 9087 3 1.78866 3.49154 0.53555 -5.81576 0.00000 0.00000
6773 9089 9088 9092 3 -1.26775 3.02085 1.74473 -3.49782 0.00000 0.00000
6778 6770 6771 6772 3 33.20422 0.00000 -33.20422 0.00000 0.00000 0.00000 ; methylguanidinium ion
6778 6770 6771 6776 3 20.50160 0.00000 -20.50160 0.00000 0.00000 0.00000 ; imides
6778 6779 6786 6787 3 30.28798 -4.81160 -25.47638 0.00000 0.00000 0.00000 ; imides
6779 6786 6787 6769 3 30.28798 -4.81160 -25.47638 0.00000 0.00000 0.00000 ; imides
6779 6786 6787 6788 3 33.20422 0.00000 -33.20422 0.00000 0.00000 0.00000 ; methylguanidinium ion
6780 6779 6786 6787 3 33.20422 0.00000 -33.20422 0.00000 0.00000 0.00000 ; methylguanidinium ion
6781 2077 2076 2075 3 1.58992 4.76976 0.00000 -6.35968 0.00000 0.00000
6781 2077 2076 2078 3 1.58992 4.76976 0.00000 -6.35968 0.00000 0.00000
6781 2077 2076 2079 3 1.58992 4.76976 0.00000 -6.35968 0.00000 0.00000
6786 6779 6780 6781 3 33.20422 0.00000 -33.20422 0.00000 0.00000 0.00000 ; methylguanidinium ion
6786 6779 6780 6784 3 20.50160 0.00000 -20.50160 0.00000 0.00000 0.00000 ; imides
6787 6769 6770 6771 3 33.20422 0.00000 -33.20422 0.00000 0.00000 0.00000 ; methylguanidinium ion
6787 6769 6770 6778 3 30.28798 -4.81160 -25.47638 0.00000 0.00000 0.00000 ; imides
6789 817 816 815 3 1.58992 4.76976 0.00000 -6.35968 0.00000 0.00000
6789 817 816 818 3 1.58992 4.76976 0.00000 -6.35968 0.00000 0.00000
6789 817 816 819 3 1.58992 4.76976 0.00000 -6.35968 0.00000 0.00000
6794 6795 6803 6804 3 30.28798 -4.81160 -25.47638 0.00000 0.00000 0.00000 ; imides
6794 6813 6814 6815 3 33.20422 0.00000 -33.20422 0.00000 0.00000 0.00000 ; methylguanidinium ion
6794 6813 6814 6818 3 20.50160 0.00000 -20.50160 0.00000 0.00000 0.00000 ; imides
6795 6794 6813 6812 3 30.28798 -4.81160 -25.47638 0.00000 0.00000 0.00000 ; imides
6795 6794 6813 6814 3 33.20422 0.00000 -33.20422 0.00000 0.00000 0.00000 ; methylguanidinium ion
6795 6803 6804 6805 3 33.20422 0.00000 -33.20422 0.00000 0.00000 0.00000 ; methylguanidinium ion
6795 6803 6804 6812 3 30.28798 -4.81160 -25.47638 0.00000 0.00000 0.00000 ; imides
6796 6795 6803 6804 3 33.20422 0.00000 -33.20422 0.00000 0.00000 0.00000 ; methylguanidinium ion
6797 6798 11634 11633 3 1.58992 4.76976 0.00000 -6.35968 0.00000 0.00000
6797 6798 11634 11635 3 1.58992 4.76976 0.00000 -6.35968 0.00000 0.00000
6797 6798 11634 11636 3 1.58992 4.76976 0.00000 -6.35968 0.00000 0.00000
6798 11634 11633 11632 3 1.78866 3.49154 0.53555 -5.81576 0.00000 0.00000
6798 11634 11633 11637 3 -1.26775 3.02085 1.74473 -3.49782 0.00000 0.00000
6803 6795 6796 6797 3 33.20422 0.00000 -33.20422 0.00000 0.00000 0.00000 ; methylguanidinium ion
6803 6795 6796 6801 3 20.50160 0.00000 -20.50160 0.00000 0.00000 0.00000 ; imides
6803 6804 6812 6813 3 30.28798 -4.81160 -25.47638 0.00000 0.00000 0.00000 ; imides
6804 6812 6813 6794 3 30.28798 -4.81160 -25.47638 0.00000 0.00000 0.00000 ; imides
6804 6812 6813 6814 3 33.20422 0.00000 -33.20422 0.00000 0.00000 0.00000 ; methylguanidinium ion
6805 6804 6812 6813 3 33.20422 0.00000 -33.20422 0.00000 0.00000 0.00000 ; methylguanidinium ion
6806 6807 7601 7600 3 1.58992 4.76976 0.00000 -6.35968 0.00000 0.00000
6806 6807 7601 7602 3 1.58992 4.76976 0.00000 -6.35968 0.00000 0.00000
6806 6807 7601 7603 3 1.58992 4.76976 0.00000 -6.35968 0.00000 0.00000
6807 7601 7600 7599 3 1.78866 3.49154 0.53555 -5.81576 0.00000 0.00000
6807 7601 7600 7604 3 -1.26775 3.02085 1.74473 -3.49782 0.00000 0.00000
6812 6804 6805 6806 3 33.20422 0.00000 -33.20422 0.00000 0.00000 0.00000 ; methylguanidinium ion
6812 6804 6805 6810 3 20.50160 0.00000 -20.50160 0.00000 0.00000 0.00000 ; imides
6813 6794 6795 6796 3 33.20422 0.00000 -33.20422 0.00000 0.00000 0.00000 ; methylguanidinium ion
6813 6794 6795 6803 3 30.28798 -4.81160 -25.47638 0.00000 0.00000 0.00000 ; imides
6815 735 734 733 3 1.58992 4.76976 0.00000 -6.35968 0.00000 0.00000
6815 735 734 736 3 1.58992 4.76976 0.00000 -6.35968 0.00000 0.00000
6815 735 734 737 3 1.58992 4.76976 0.00000 -6.35968 0.00000 0.00000
6820 6821 6829 6830 3 30.28798 -4.81160 -25.47638 0.00000 0.00000 0.00000 ; imides
6820 6840 6841 6842 3 33.20422 0.00000 -33.20422 0.00000 0.00000 0.00000 ; methylguanidinium ion
6820 6840 6841 6845 3 20.50160 0.00000 -20.50160 0.00000 0.00000 0.00000 ; imides
6821 6820 6840 6839 3 30.28798 -4.81160 -25.47638 0.00000 0.00000 0.00000 ; imides
6821 6820 6840 6841 3 33.20422 0.00000 -33.20422 0.00000 0.00000 0.00000 ; methylguanidinium ion
6821 6829 6830 6831 3 33.20422 0.00000 -33.20422 0.00000 0.00000 0.00000 ; methylguanidinium ion
6821 6829 6830 6839 3 30.28798 -4.81160 -25.47638 0.00000 0.00000 0.00000 ; imides
6822 6821 6829 6830 3 33.20422 0.00000 -33.20422 0.00000 0.00000 0.00000 ; methylguanidinium ion
6823 6824 11076 11075 3 1.58992 4.76976 0.00000 -6.35968 0.00000 0.00000
6823 6824 11076 11077 3 1.58992 4.76976 0.00000 -6.35968 0.00000 0.00000
6823 6824 11076 11078 3 1.58992 4.76976 0.00000 -6.35968 0.00000 0.00000
6824 11076 11075 11074 3 1.78866 3.49154 0.53555 -5.81576 0.00000 0.00000
6824 11076 11075 11079 3 -1.26775 3.02085 1.74473 -3.49782 0.00000 0.00000
6829 6821 6822 6823 3 33.20422 0.00000 -33.20422 0.00000 0.00000 0.00000 ; methylguanidinium ion
6829 6821 6822 6827 3 20.50160 0.00000 -20.50160 0.00000 0.00000 0.00000 ; imides
6829 6830 6839 6840 3 30.28798 -4.81160 -25.47638 0.00000 0.00000 0.00000 ; imides
6830 6839 6840 6820 3 30.28798 -4.81160 -25.47638 0.00000 0.00000 0.00000 ; imides
6830 6839 6840 6841 3 33.20422 0.00000 -33.20422 0.00000 0.00000 0.00000 ; methylguanidinium ion
6831 6830 6839 6840 3 33.20422 0.00000 -33.20422 0.00000 0.00000 0.00000 ; methylguanidinium ion
6839 6830 6831 6832 3 33.20422 0.00000 -33.20422 0.00000 0.00000 0.00000 ; methylguanidinium ion
6839 6830 6831 6837 3 20.50160 0.00000 -20.50160 0.00000 0.00000 0.00000 ; imides
6840 6820 6821 6822 3 33.20422 0.00000 -33.20422 0.00000 0.00000 0.00000 ; methylguanidinium ion
6840 6820 6821 6829 3 30.28798 -4.81160 -25.47638 0.00000 0.00000 0.00000 ; imides
6842 6074 6073 6072 3 1.58992 4.76976 0.00000 -6.35968 0.00000 0.00000
6842 6074 6073 6075 3 1.58992 4.76976 0.00000 -6.35968 0.00000 0.00000
6842 6074 6073 6076 3 1.58992 4.76976 0.00000 -6.35968 0.00000 0.00000
6847 6848 6855 6856 3 30.28798 -4.81160 -25.47638 0.00000 0.00000 0.00000 ; imides
6847 6864 6865 6866 3 33.20422 0.00000 -33.20422 0.00000 0.00000 0.00000 ; methylguanidinium ion
6847 6864 6865 6869 3 20.50160 0.00000 -20.50160 0.00000 0.00000 0.00000 ; imides
6848 6847 6864 6863 3 30.28798 -4.81160 -25.47638 0.00000 0.00000 0.00000 ; imides
6848 6847 6864 6865 3 33.20422 0.00000 -33.20422 0.00000 0.00000 0.00000 ; methylguanidinium ion
6848 6855 6856 6857 3 33.20422 0.00000 -33.20422 0.00000 0.00000 0.00000 ; methylguanidinium ion
6848 6855 6856 6863 3 30.28798 -4.81160 -25.47638 0.00000 0.00000 0.00000 ; imides
6849 6848 6855 6856 3 33.20422 0.00000 -33.20422 0.00000 0.00000 0.00000 ; methylguanidinium ion
6850 4886 4885 4884 3 1.58992 4.76976 0.00000 -6.35968 0.00000 0.00000
6850 4886 4885 4887 3 1.58992 4.76976 0.00000 -6.35968 0.00000 0.00000
6850 4886 4885 4888 3 1.58992 4.76976 0.00000 -6.35968 0.00000 0.00000
6855 6848 6849 6850 3 33.20422 0.00000 -33.20422 0.00000 0.00000 0.00000 ; methylguanidinium ion
6855 6848 6849 6853 3 20.50160 0.00000 -20.50160 0.00000 0.00000 0.00000 ; imides
6855 6856 6863 6864 3 30.28798 -4.81160 -25.47638 0.00000 0.00000 0.00000 ; imides
6856 6863 6864 6847 3 30.28798 -4.81160 -25.47638 0.00000 0.00000 0.00000 ; imides
6856 6863 6864 6865 3 33.20422 0.00000 -33.20422 0.00000 0.00000 0.00000 ; methylguanidinium ion
6857 6856 6863 6864 3 33.20422 0.00000 -33.20422 0.00000 0.00000 0.00000 ; methylguanidinium ion
6858 6755 6754 6753 3 1.58992 4.76976 0.00000 -6.35968 0.00000 0.00000
6858 6755 6754 6756 3 1.58992 4.76976 0.00000 -6.35968 0.00000 0.00000
6858 6755 6754 6757 3 1.58992 4.76976 0.00000 -6.35968 0.00000 0.00000
6863 6856 6857 6858 3 33.20422 0.00000 -33.20422 0.00000 0.00000 0.00000 ; methylguanidinium ion
6863 6856 6857 6861 3 20.50160 0.00000 -20.50160 0.00000 0.00000 0.00000 ; imides
6864 6847 6848 6849 3 33.20422 0.00000 -33.20422 0.00000 0.00000 0.00000 ; methylguanidinium ion
6864 6847 6848 6855 3 30.28798 -4.81160 -25.47638 0.00000 0.00000 0.00000 ; imides
6866 3183 3182 3181 3 1.58992 4.76976 0.00000 -6.35968 0.00000 0.00000
6866 3183 3182 3184 3 1.58992 4.76976 0.00000 -6.35968 0.00000 0.00000
6866 3183 3182 3185 3 1.58992 4.76976 0.00000 -6.35968 0.00000 0.00000
6871 6872 6880 6881 3 30.28798 -4.81160 -25.47638 0.00000 0.00000 0.00000 ; imides
6871 6890 6891 6892 3 33.20422 0.00000 -33.20422 0.00000 0.00000 0.00000 ; methylguanidinium ion
6871 6890 6891 6896 3 20.50160 0.00000 -20.50160 0.00000 0.00000 0.00000 ; imides
6872 6871 6890 6889 3 30.28798 -4.81160 -25.47638 0.00000 0.00000 0.00000 ; imides
6872 6871 6890 6891 3 33.20422 0.00000 -33.20422 0.00000 0.00000 0.00000 ; methylguanidinium ion
6872 6880 6881 6882 3 33.20422 0.00000 -33.20422 0.00000 0.00000 0.00000 ; methylguanidinium ion
6872 6880 6881 6889 3 30.28798 -4.81160 -25.47638 0.00000 0.00000 0.00000 ; imides
6873 6872 6880 6881 3 33.20422 0.00000 -33.20422 0.00000 0.00000 0.00000 ; methylguanidinium ion
6874 6875 8658 8657 3 1.58992 4.76976 0.00000 -6.35968 0.00000 0.00000
6874 6875 8658 8659 3 1.58992 4.76976 0.00000 -6.35968 0.00000 0.00000
6874 6875 8658 8660 3 1.58992 4.76976 0.00000 -6.35968 0.00000 0.00000
6875 8658 8657 8656 3 1.78866 3.49154 0.53555 -5.81576 0.00000 0.00000
6875 8658 8657 8661 3 -1.26775 3.02085 1.74473 -3.49782 0.00000 0.00000
6880 6872 6873 6874 3 33.20422 0.00000 -33.20422 0.00000 0.00000 0.00000 ; methylguanidinium ion
6880 6872 6873 6878 3 20.50160 0.00000 -20.50160 0.00000 0.00000 0.00000 ; imides
6880 6881 6889 6890 3 30.28798 -4.81160 -25.47638 0.00000 0.00000 0.00000 ; imides
6881 6889 6890 6871 3 30.28798 -4.81160 -25.47638 0.00000 0.00000 0.00000 ; imides
6881 6889 6890 6891 3 33.20422 0.00000 -33.20422 0.00000 0.00000 0.00000 ; methylguanidinium ion
6882 6881 6889 6890 3 33.20422 0.00000 -33.20422 0.00000 0.00000 0.00000 ; methylguanidinium ion
6883 6884 7866 7865 3 1.58992 4.76976 0.00000 -6.35968 0.00000 0.00000
6883 6884 7866 7867 3 1.58992 4.76976 0.00000 -6.35968 0.00000 0.00000
6883 6884 7866 7868 3 1.58992 4.76976 0.00000 -6.35968 0.00000 0.00000
6884 7866 7865 7864 3 1.78866 3.49154 0.53555 -5.81576 0.00000 0.00000
6884 7866 7865 7869 3 -1.26775 3.02085 1.74473 -3.49782 0.00000 0.00000
6889 6881 6882 6883 3 33.20422 0.00000 -33.20422 0.00000 0.00000 0.00000 ; methylguanidinium ion
6889 6881 6882 6887 3 20.50160 0.00000 -20.50160 0.00000 0.00000 0.00000 ; imides
6890 6871 6872 6873 3 33.20422 0.00000 -33.20422 0.00000 0.00000 0.00000 ; methylguanidinium ion
6890 6871 6872 6880 3 30.28798 -4.81160 -25.47638 0.00000 0.00000 0.00000 ; imides
6892 6893 9888 9887 3 1.58992 4.76976 0.00000 -6.35968 0.00000 0.00000
6892 6893 9888 9889 3 1.58992 4.76976 0.00000 -6.35968 0.00000 0.00000
6892 6893 9888 9890 3 1.58992 4.76976 0.00000 -6.35968 0.00000 0.00000
6893 9888 9887 9886 3 1.78866 3.49154 0.53555 -5.81576 0.00000 0.00000
6893 9888 9887 9891 3 -1.26775 3.02085 1.74473 -3.49782 0.00000 0.00000
6898 6899 6906 6907 3 30.28798 -4.81160 -25.47638 0.00000 0.00000 0.00000 ; imides
6898 6915 6916 6917 3 33.20422 0.00000 -33.20422 0.00000 0.00000 0.00000 ; methylguanidinium ion
6898 6915 6916 6920 3 20.50160 0.00000 -20.50160 0.00000 0.00000 0.00000 ; imides
6899 6898 6915 6914 3 30.28798 -4.81160 -25.47638 0.00000 0.00000 0.00000 ; imides
6899 6898 6915 6916 3 33.20422 0.00000 -33.20422 0.00000 0.00000 0.00000 ; methylguanidinium ion
6899 6906 6907 6908 3 33.20422 0.00000 -33.20422 0.00000 0.00000 0.00000 ; methylguanidinium ion
6899 6906 6907 6914 3 30.28798 -4.81160 -25.47638 0.00000 0.00000 0.00000 ; imides
6900 6899 6906 6907 3 33.20422 0.00000 -33.20422 0.00000 0.00000 0.00000 ; methylguanidinium ion
6901 4895 4894 4893 3 1.58992 4.76976 0.00000 -6.35968 0.00000 0.00000
6901 4895 4894 4896 3 1.58992 4.76976 0.00000 -6.35968 0.00000 0.00000
6901 4895 4894 4897 3 1.58992 4.76976 0.00000 -6.35968 0.00000 0.00000
6906 6899 6900 6901 3 33.20422 0.00000 -33.20422 0.00000 0.00000 0.00000 ; methylguanidinium ion
6906 6899 6900 6904 3 20.50160 0.00000 -20.50160 0.00000 0.00000 0.00000 ; imides
6906 6907 6914 6915 3 30.28798 -4.81160 -25.47638 0.00000 0.00000 0.00000 ; imides
6907 6914 6915 6898 3 30.28798 -4.81160 -25.47638 0.00000 0.00000 0.00000 ; imides
6907 6914 6915 6916 3 33.20422 0.00000 -33.20422 0.00000 0.00000 0.00000 ; methylguanidinium ion
6908 6907 6914 6915 3 33.20422 0.00000 -33.20422 0.00000 0.00000 0.00000 ; methylguanidinium ion
6909 2525 2524 2523 3 1.58992 4.76976 0.00000 -6.35968 0.00000 0.00000
6909 2525 2524 2526 3 1.58992 4.76976 0.00000 -6.35968 0.00000 0.00000
6909 2525 2524 2527 3 1.58992 4.76976 0.00000 -6.35968 0.00000 0.00000
6914 6907 6908 6909 3 33.20422 0.00000 -33.20422 0.00000 0.00000 0.00000 ; methylguanidinium ion
6914 6907 6908 6912 3 20.50160 0.00000 -20.50160 0.00000 0.00000 0.00000 ; imides
6915 6898 6899 6900 3 33.20422 0.00000 -33.20422 0.00000 0.00000 0.00000 ; methylguanidinium ion
6915 6898 6899 6906 3 30.28798 -4.81160 -25.47638 0.00000 0.00000 0.00000 ; imides
6917 5850 5849 5848 3 1.58992 4.76976 0.00000 -6.35968 0.00000 0.00000
6917 5850 5849 5851 3 1.58992 4.76976 0.00000 -6.35968 0.00000 0.00000
6917 5850 5849 5852 3 1.58992 4.76976 0.00000 -6.35968 0.00000 0.00000
6922 6923 6931 6932 3 30.28798 -4.81160 -25.47638 0.00000 0.00000 0.00000 ; imides
6922 6940 6941 6942 3 33.20422 0.00000 -33.20422 0.00000 0.00000 0.00000 ; methylguanidinium ion
6922 6940 6941 6946 3 20.50160 0.00000 -20.50160 0.00000 0.00000 0.00000 ; imides
6923 6922 6940 6939 3 30.28798 -4.81160 -25.47638 0.00000 0.00000 0.00000 ; imides
6923 6922 6940 6941 3 33.20422 0.00000 -33.20422 0.00000 0.00000 0.00000 ; methylguanidinium ion
6923 6931 6932 6933 3 33.20422 0.00000 -33.20422 0.00000 0.00000 0.00000 ; methylguanidinium ion
6923 6931 6932 6939 3 30.28798 -4.81160 -25.47638 0.00000 0.00000 0.00000 ; imides
6924 6923 6931 6932 3 33.20422 0.00000 -33.20422 0.00000 0.00000 0.00000 ; methylguanidinium ion
6925 6926 8583 8582 3 1.58992 4.76976 0.00000 -6.35968 0.00000 0.00000
6925 6926 8583 8584 3 1.58992 4.76976 0.00000 -6.35968 0.00000 0.00000
6925 6926 8583 8585 3 1.58992 4.76976 0.00000 -6.35968 0.00000 0.00000
6926 8583 8582 8581 3 1.78866 3.49154 0.53555 -5.81576 0.00000 0.00000
6926 8583 8582 8586 3 -1.26775 3.02085 1.74473 -3.49782 0.00000 0.00000
6931 6923 6924 6925 3 33.20422 0.00000 -33.20422 0.00000 0.00000 0.00000 ; methylguanidinium ion
6931 6923 6924 6929 3 20.50160 0.00000 -20.50160 0.00000 0.00000 0.00000 ; imides
6931 6932 6939 6940 3 30.28798 -4.81160 -25.47638 0.00000 0.00000 0.00000 ; imides
6932 6939 6940 6922 3 30.28798 -4.81160 -25.47638 0.00000 0.00000 0.00000 ; imides
6932 6939 6940 6941 3 33.20422 0.00000 -33.20422 0.00000 0.00000 0.00000 ; methylguanidinium ion
6933 6932 6939 6940 3 33.20422 0.00000 -33.20422 0.00000 0.00000 0.00000 ; methylguanidinium ion
6934 3428 3427 3426 3 1.58992 4.76976 0.00000 -6.35968 0.00000 0.00000
6934 3428 3427 3429 3 1.58992 4.76976 0.00000 -6.35968 0.00000 0.00000
6934 3428 3427 3430 3 1.58992 4.76976 0.00000 -6.35968 0.00000 0.00000
6939 6932 6933 6934 3 33.20422 0.00000 -33.20422 0.00000 0.00000 0.00000 ; methylguanidinium ion
6939 6932 6933 6937 3 20.50160 0.00000 -20.50160 0.00000 0.00000 0.00000 ; imides
6940 6922 6923 6924 3 33.20422 0.00000 -33.20422 0.00000 0.00000 0.00000 ; methylguanidinium ion
6940 6922 6923 6931 3 30.28798 -4.81160 -25.47638 0.00000 0.00000 0.00000 ; imides
6942 6943 8725 8724 3 1.58992 4.76976 0.00000 -6.35968 0.00000 0.00000
6942 6943 8725 8726 3 1.58992 4.76976 0.00000 -6.35968 0.00000 0.00000
6942 6943 8725 8727 3 1.58992 4.76976 0.00000 -6.35968 0.00000 0.00000
6943 8725 8724 8723 3 1.78866 3.49154 0.53555 -5.81576 0.00000 0.00000
6943 8725 8724 8728 3 -1.26775 3.02085 1.74473 -3.49782 0.00000 0.00000
6948 6949 6957 6958 3 30.28798 -4.81160 -25.47638 0.00000 0.00000 0.00000 ; imides
6948 6966 6967 6968 3 33.20422 0.00000 -33.20422 0.00000 0.00000 0.00000 ; methylguanidinium ion
6948 6966 6967 6971 3 20.50160 0.00000 -20.50160 0.00000 0.00000 0.00000 ; imides
6949 6948 6966 6965 3 30.28798 -4.81160 -25.47638 0.00000 0.00000 0.00000 ; imides
6949 6948 6966 6967 3 33.20422 0.00000 -33.20422 0.00000 0.00000 0.00000 ; methylguanidinium ion
6949 6957 6958 6959 3 33.20422 0.00000 -33.20422 0.00000 0.00000 0.00000 ; methylguanidinium ion
6949 6957 6958 6965 3 30.28798 -4.81160 -25.47638 0.00000 0.00000 0.00000 ; imides
6950 6949 6957 6958 3 33.20422 0.00000 -33.20422 0.00000 0.00000 0.00000 ; methylguanidinium ion
6951 6952 8338 8337 3 1.58992 4.76976 0.00000 -6.35968 0.00000 0.00000
6951 6952 8338 8339 3 1.58992 4.76976 0.00000 -6.35968 0.00000 0.00000
6951 6952 8338 8340 3 1.58992 4.76976 0.00000 -6.35968 0.00000 0.00000
6952 8338 8337 8336 3 1.78866 3.49154 0.53555 -5.81576 0.00000 0.00000
6952 8338 8337 8341 3 -1.26775 3.02085 1.74473 -3.49782 0.00000 0.00000
6957 6949 6950 6951 3 33.20422 0.00000 -33.20422 0.00000 0.00000 0.00000 ; methylguanidinium ion
6957 6949 6950 6955 3 20.50160 0.00000 -20.50160 0.00000 0.00000 0.00000 ; imides
6957 6958 6965 6966 3 30.28798 -4.81160 -25.47638 0.00000 0.00000 0.00000 ; imides
6958 6965 6966 6948 3 30.28798 -4.81160 -25.47638 0.00000 0.00000 0.00000 ; imides
6958 6965 6966 6967 3 33.20422 0.00000 -33.20422 0.00000 0.00000 0.00000 ; methylguanidinium ion
6959 6958 6965 6966 3 33.20422 0.00000 -33.20422 0.00000 0.00000 0.00000 ; methylguanidinium ion
6960 2811 2810 2809 3 1.58992 4.76976 0.00000 -6.35968 0.00000 0.00000
6960 2811 2810 2812 3 1.58992 4.76976 0.00000 -6.35968 0.00000 0.00000
6960 2811 2810 2813 3 1.58992 4.76976 0.00000 -6.35968 0.00000 0.00000
6965 6958 6959 6960 3 33.20422 0.00000 -33.20422 0.00000 0.00000 0.00000 ; methylguanidinium ion
6965 6958 6959 6963 3 20.50160 0.00000 -20.50160 0.00000 0.00000 0.00000 ; imides
6966 6948 6949 6950 3 33.20422 0.00000 -33.20422 0.00000 0.00000 0.00000 ; methylguanidinium ion
6966 6948 6949 6957 3 30.28798 -4.81160 -25.47638 0.00000 0.00000 0.00000 ; imides
6968 5088 5087 5086 3 1.58992 4.76976 0.00000 -6.35968 0.00000 0.00000
6968 5088 5087 5089 3 1.58992 4.76976 0.00000 -6.35968 0.00000 0.00000
6968 5088 5087 5090 3 1.58992 4.76976 0.00000 -6.35968 0.00000 0.00000
6973 6974 6982 6983 3 30.28798 -4.81160 -25.47638 0.00000 0.00000 0.00000 ; imides
6973 6991 6992 6993 3 33.20422 0.00000 -33.20422 0.00000 0.00000 0.00000 ; methylguanidinium ion
6973 6991 6992 6996 3 20.50160 0.00000 -20.50160 0.00000 0.00000 0.00000 ; imides
6974 6973 6991 6990 3 30.28798 -4.81160 -25.47638 0.00000 0.00000 0.00000 ; imides
6974 6973 6991 6992 3 33.20422 0.00000 -33.20422 0.00000 0.00000 0.00000 ; methylguanidinium ion
6974 6982 6983 6984 3 33.20422 0.00000 -33.20422 0.00000 0.00000 0.00000 ; methylguanidinium ion
6974 6982 6983 6990 3 30.28798 -4.81160 -25.47638 0.00000 0.00000 0.00000 ; imides
6975 6974 6982 6983 3 33.20422 0.00000 -33.20422 0.00000 0.00000 0.00000 ; methylguanidinium ion
6976 6977 10736 10735 3 1.58992 4.76976 0.00000 -6.35968 0.00000 0.00000
6976 6977 10736 10737 3 1.58992 4.76976 0.00000 -6.35968 0.00000 0.00000
6976 6977 10736 10738 3 1.58992 4.76976 0.00000 -6.35968 0.00000 0.00000
6977 10736 10735 10734 3 1.78866 3.49154 0.53555 -5.81576 0.00000 0.00000
6977 10736 10735 10739 3 -1.26775 3.02085 1.74473 -3.49782 0.00000 0.00000
6982 6974 6975 6976 3 33.20422 0.00000 -33.20422 0.00000 0.00000 0.00000 ; methylguanidinium ion
6982 6974 6975 6980 3 20.50160 0.00000 -20.50160 0.00000 0.00000 0.00000 ; imides
6982 6983 6990 6991 3 30.28798 -4.81160 -25.47638 0.00000 0.00000 0.00000 ; imides
6983 6990 6991 6973 3 30.28798 -4.81160 -25.47638 0.00000 0.00000 0.00000 ; imides
6983 6990 6991 6992 3 33.20422 0.00000 -33.20422 0.00000 0.00000 0.00000 ; methylguanidinium ion
6984 6983 6990 6991 3 33.20422 0.00000 -33.20422 0.00000 0.00000 0.00000 ; methylguanidinium ion
6985 4064 4063 4062 3 1.58992 4.76976 0.00000 -6.35968 0.00000 0.00000
6985 4064 4063 4065 3 1.58992 4.76976 0.00000 -6.35968 0.00000 0.00000
6985 4064 4063 4066 3 1.58992 4.76976 0.00000 -6.35968 0.00000 0.00000
6990 6983 6984 6985 3 33.20422 0.00000 -33.20422 0.00000 0.00000 0.00000 ; methylguanidinium ion
6990 6983 6984 6988 3 20.50160 0.00000 -20.50160 0.00000 0.00000 0.00000 ; imides
6991 6973 6974 6975 3 33.20422 0.00000 -33.20422 0.00000 0.00000 0.00000 ; methylguanidinium ion
6991 6973 6974 6982 3 30.28798 -4.81160 -25.47638 0.00000 0.00000 0.00000 ; imides
6993 5944 5943 5942 3 1.58992 4.76976 0.00000 -6.35968 0.00000 0.00000
6993 5944 5943 5945 3 1.58992 4.76976 0.00000 -6.35968 0.00000 0.00000
6993 5944 5943 5946 3 1.58992 4.76976 0.00000 -6.35968 0.00000 0.00000
6998 6999 7007 7008 3 30.28798 -4.81160 -25.47638 0.00000 0.00000 0.00000 ; imides
6998 7018 7019 7020 3 33.20422 0.00000 -33.20422 0.00000 0.00000 0.00000 ; methylguanidinium ion
6998 7018 7019 7024 3 20.50160 0.00000 -20.50160 0.00000 0.00000 0.00000 ; imides
6999 6998 7018 7017 3 30.28798 -4.81160 -25.47638 0.00000 0.00000 0.00000 ; imides
6999 6998 7018 7019 3 33.20422 0.00000 -33.20422 0.00000 0.00000 0.00000 ; methylguanidinium ion
6999 7007 7008 7009 3 33.20422 0.00000 -33.20422 0.00000 0.00000 0.00000 ; methylguanidinium ion
6999 7007 7008 7017 3 30.28798 -4.81160 -25.47638 0.00000 0.00000 0.00000 ; imides
7000 6999 7007 7008 3 33.20422 0.00000 -33.20422 0.00000 0.00000 0.00000 ; methylguanidinium ion
7001 7002 10333 10332 3 1.58992 4.76976 0.00000 -6.35968 0.00000 0.00000
7001 7002 10333 10334 3 1.58992 4.76976 0.00000 -6.35968 0.00000 0.00000
7001 7002 10333 10335 3 1.58992 4.76976 0.00000 -6.35968 0.00000 0.00000
7002 10333 10332 10331 3 1.78866 3.49154 0.53555 -5.81576 0.00000 0.00000
7002 10333 10332 10336 3 -1.26775 3.02085 1.74473 -3.49782 0.00000 0.00000
7007 6999 7000 7001 3 33.20422 0.00000 -33.20422 0.00000 0.00000 0.00000 ; methylguanidinium ion
7007 6999 7000 7005 3 20.50160 0.00000 -20.50160 0.00000 0.00000 0.00000 ; imides
7007 7008 7017 7018 3 30.28798 -4.81160 -25.47638 0.00000 0.00000 0.00000 ; imides
7008 7017 7018 6998 3 30.28798 -4.81160 -25.47638 0.00000 0.00000 0.00000 ; imides
7008 7017 7018 7019 3 33.20422 0.00000 -33.20422 0.00000 0.00000 0.00000 ; methylguanidinium ion
7009 7008 7017 7018 3 33.20422 0.00000 -33.20422 0.00000 0.00000 0.00000 ; methylguanidinium ion
7017 7008 7009 7010 3 33.20422 0.00000 -33.20422 0.00000 0.00000 0.00000 ; methylguanidinium ion
7017 7008 7009 7015 3 20.50160 0.00000 -20.50160 0.00000 0.00000 0.00000 ; imides
7018 6998 6999 7000 3 33.20422 0.00000 -33.20422 0.00000 0.00000 0.00000 ; methylguanidinium ion
7018 6998 6999 7007 3 30.28798 -4.81160 -25.47638 0.00000 0.00000 0.00000 ; imides
7020 7021 12346 12345 3 1.58992 4.76976 0.00000 -6.35968 0.00000 0.00000
7020 7021 12346 12347 3 1.58992 4.76976 0.00000 -6.35968 0.00000 0.00000
7020 7021 12346 12348 3 1.58992 4.76976 0.00000 -6.35968 0.00000 0.00000
7021 12346 12345 12344 3 1.78866 3.49154 0.53555 -5.81576 0.00000 0.00000
7021 12346 12345 12349 3 -1.26775 3.02085 1.74473 -3.49782 0.00000 0.00000
7026 7027 7035 7036 3 30.28798 -4.81160 -25.47638 0.00000 0.00000 0.00000 ; imides
7026 7045 7046 7047 3 33.20422 0.00000 -33.20422 0.00000 0.00000 0.00000 ; methylguanidinium ion
7026 7045 7046 7052 3 20.50160 0.00000 -20.50160 0.00000 0.00000 0.00000 ; imides
7027 7026 7045 7044 3 30.28798 -4.81160 -25.47638 0.00000 0.00000 0.00000 ; imides
7027 7026 7045 7046 3 33.20422 0.00000 -33.20422 0.00000 0.00000 0.00000 ; methylguanidinium ion
7027 7035 7036 7037 3 33.20422 0.00000 -33.20422 0.00000 0.00000 0.00000 ; methylguanidinium ion
7027 7035 7036 7044 3 30.28798 -4.81160 -25.47638 0.00000 0.00000 0.00000 ; imides
7028 7027 7035 7036 3 33.20422 0.00000 -33.20422 0.00000 0.00000 0.00000 ; methylguanidinium ion
7029 7030 8794 8793 3 1.58992 4.76976 0.00000 -6.35968 0.00000 0.00000
7029 7030 8794 8795 3 1.58992 4.76976 0.00000 -6.35968 0.00000 0.00000
7029 7030 8794 8796 3 1.58992 4.76976 0.00000 -6.35968 0.00000 0.00000
7030 8794 8793 8792 3 1.78866 3.49154 0.53555 -5.81576 0.00000 0.00000
7030 8794 8793 8797 3 -1.26775 3.02085 1.74473 -3.49782 0.00000 0.00000
7035 7027 7028 7029 3 33.20422 0.00000 -33.20422 0.00000 0.00000 0.00000 ; methylguanidinium ion
7035 7027 7028 7033 3 20.50160 0.00000 -20.50160 0.00000 0.00000 0.00000 ; imides
7035 7036 7044 7045 3 30.28798 -4.81160 -25.47638 0.00000 0.00000 0.00000 ; imides
7036 7044 7045 7026 3 30.28798 -4.81160 -25.47638 0.00000 0.00000 0.00000 ; imides
7036 7044 7045 7046 3 33.20422 0.00000 -33.20422 0.00000 0.00000 0.00000 ; methylguanidinium ion
7037 7036 7044 7045 3 33.20422 0.00000 -33.20422 0.00000 0.00000 0.00000 ; methylguanidinium ion
7038 7039 11618 11617 3 1.58992 4.76976 0.00000 -6.35968 0.00000 0.00000
7038 7039 11618 11619 3 1.58992 4.76976 0.00000 -6.35968 0.00000 0.00000
7038 7039 11618 11620 3 1.58992 4.76976 0.00000 -6.35968 0.00000 0.00000
7039 11618 11617 11616 3 1.78866 3.49154 0.53555 -5.81576 0.00000 0.00000
7039 11618 11617 11621 3 -1.26775 3.02085 1.74473 -3.49782 0.00000 0.00000
7044 7036 7037 7038 3 33.20422 0.00000 -33.20422 0.00000 0.00000 0.00000 ; methylguanidinium ion
7044 7036 7037 7042 3 20.50160 0.00000 -20.50160 0.00000 0.00000 0.00000 ; imides
7045 7026 7027 7028 3 33.20422 0.00000 -33.20422 0.00000 0.00000 0.00000 ; methylguanidinium ion
7045 7026 7027 7035 3 30.28798 -4.81160 -25.47638 0.00000 0.00000 0.00000 ; imides
7054 7055 7062 7063 3 30.28798 -4.81160 -25.47638 0.00000 0.00000 0.00000 ; imides
7054 7071 7072 7073 3 33.20422 0.00000 -33.20422 0.00000 0.00000 0.00000 ; methylguanidinium ion
7054 7071 7072 7076 3 20.50160 0.00000 -20.50160 0.00000 0.00000 0.00000 ; imides
7055 7054 7071 7070 3 30.28798 -4.81160 -25.47638 0.00000 0.00000 0.00000 ; imides
7055 7054 7071 7072 3 33.20422 0.00000 -33.20422 0.00000 0.00000 0.00000 ; methylguanidinium ion
7055 7062 7063 7064 3 33.20422 0.00000 -33.20422 0.00000 0.00000 0.00000 ; methylguanidinium ion
7055 7062 7063 7070 3 30.28798 -4.81160 -25.47638 0.00000 0.00000 0.00000 ; imides
7056 7055 7062 7063 3 33.20422 0.00000 -33.20422 0.00000 0.00000 0.00000 ; methylguanidinium ion
7057 1225 1224 1223 3 1.58992 4.76976 0.00000 -6.35968 0.00000 0.00000
7057 1225 1224 1226 3 1.58992 4.76976 0.00000 -6.35968 0.00000 0.00000
7057 1225 1224 1227 3 1.58992 4.76976 0.00000 -6.35968 0.00000 0.00000
7062 7055 7056 7057 3 33.20422 0.00000 -33.20422 0.00000 0.00000 0.00000 ; methylguanidinium ion
7062 7055 7056 7060 3 20.50160 0.00000 -20.50160 0.00000 0.00000 0.00000 ; imides
7062 7063 7070 7071 3 30.28798 -4.81160 -25.47638 0.00000 0.00000 0.00000 ; imides
7063 7070 7071 7054 3 30.28798 -4.81160 -25.47638 0.00000 0.00000 0.00000 ; imides
7063 7070 7071 7072 3 33.20422 0.00000 -33.20422 0.00000 0.00000 0.00000 ; methylguanidinium ion
7064 7063 7070 7071 3 33.20422 0.00000 -33.20422 0.00000 0.00000 0.00000 ; methylguanidinium ion
7065 482 481 480 3 1.58992 4.76976 0.00000 -6.35968 0.00000 0.00000
7065 482 481 483 3 1.58992 4.76976 0.00000 -6.35968 0.00000 0.00000
7065 482 481 484 3 1.58992 4.76976 0.00000 -6.35968 0.00000 0.00000
7070 7063 7064 7065 3 33.20422 0.00000 -33.20422 0.00000 0.00000 0.00000 ; methylguanidinium ion
7070 7063 7064 7068 3 20.50160 0.00000 -20.50160 0.00000 0.00000 0.00000 ; imides
7071 7054 7055 7056 3 33.20422 0.00000 -33.20422 0.00000 0.00000 0.00000 ; methylguanidinium ion
7071 7054 7055 7062 3 30.28798 -4.81160 -25.47638 0.00000 0.00000 0.00000 ; imides
7073 1658 1657 1656 3 1.58992 4.76976 0.00000 -6.35968 0.00000 0.00000
7073 1658 1657 1659 3 1.58992 4.76976 0.00000 -6.35968 0.00000 0.00000
7073 1658 1657 1660 3 1.58992 4.76976 0.00000 -6.35968 0.00000 0.00000
7078 7079 7086 7087 3 30.28798 -4.81160 -25.47638 0.00000 0.00000 0.00000 ; imides
7078 7097 7098 7099 3 33.20422 0.00000 -33.20422 0.00000 0.00000 0.00000 ; methylguanidinium ion
7078 7097 7098 7103 3 20.50160 0.00000 -20.50160 0.00000 0.00000 0.00000 ; imides
7079 7078 7097 7096 3 30.28798 -4.81160 -25.47638 0.00000 0.00000 0.00000 ; imides
7079 7078 7097 7098 3 33.20422 0.00000 -33.20422 0.00000 0.00000 0.00000 ; methylguanidinium ion
7079 7086 7087 7088 3 33.20422 0.00000 -33.20422 0.00000 0.00000 0.00000 ; methylguanidinium ion
7079 7086 7087 7096 3 30.28798 -4.81160 -25.47638 0.00000 0.00000 0.00000 ; imides
7080 7079 7086 7087 3 33.20422 0.00000 -33.20422 0.00000 0.00000 0.00000 ; methylguanidinium ion
7081 4877 4876 4875 3 1.58992 4.76976 0.00000 -6.35968 0.00000 0.00000
7081 4877 4876 4878 3 1.58992 4.76976 0.00000 -6.35968 0.00000 0.00000
7081 4877 4876 4879 3 1.58992 4.76976 0.00000 -6.35968 0.00000 0.00000
7086 7079 7080 7081 3 33.20422 0.00000 -33.20422 0.00000 0.00000 0.00000 ; methylguanidinium ion
7086 7079 7080 7084 3 20.50160 0.00000 -20.50160 0.00000 0.00000 0.00000 ; imides
7086 7087 7096 7097 3 30.28798 -4.81160 -25.47638 0.00000 0.00000 0.00000 ; imides
7087 7096 7097 7078 3 30.28798 -4.81160 -25.47638 0.00000 0.00000 0.00000 ; imides
7087 7096 7097 7098 3 33.20422 0.00000 -33.20422 0.00000 0.00000 0.00000 ; methylguanidinium ion
7088 7087 7096 7097 3 33.20422 0.00000 -33.20422 0.00000 0.00000 0.00000 ; methylguanidinium ion
7096 7087 7088 7089 3 33.20422 0.00000 -33.20422 0.00000 0.00000 0.00000 ; methylguanidinium ion
7096 7087 7088 7094 3 20.50160 0.00000 -20.50160 0.00000 0.00000 0.00000 ; imides
7097 7078 7079 7080 3 33.20422 0.00000 -33.20422 0.00000 0.00000 0.00000 ; methylguanidinium ion
7097 7078 7079 7086 3 30.28798 -4.81160 -25.47638 0.00000 0.00000 0.00000 ; imides
7099 7100 10986 10985 3 1.58992 4.76976 0.00000 -6.35968 0.00000 0.00000
7099 7100 10986 10987 3 1.58992 4.76976 0.00000 -6.35968 0.00000 0.00000
7099 7100 10986 10988 3 1.58992 4.76976 0.00000 -6.35968 0.00000 0.00000
7100 10986 10985 10984 3 1.78866 3.49154 0.53555 -5.81576 0.00000 0.00000
7100 10986 10985 10989 3 -1.26775 3.02085 1.74473 -3.49782 0.00000 0.00000
7105 7106 7114 7115 3 30.28798 -4.81160 -25.47638 0.00000 0.00000 0.00000 ; imides
7105 7123 7124 7125 3 33.20422 0.00000 -33.20422 0.00000 0.00000 0.00000 ; methylguanidinium ion
7105 7123 7124 7129 3 20.50160 0.00000 -20.50160 0.00000 0.00000 0.00000 ; imides
7106 7105 7123 7122 3 30.28798 -4.81160 -25.47638 0.00000 0.00000 0.00000 ; imides
7106 7105 7123 7124 3 33.20422 0.00000 -33.20422 0.00000 0.00000 0.00000 ; methylguanidinium ion
7106 7114 7115 7116 3 33.20422 0.00000 -33.20422 0.00000 0.00000 0.00000 ; methylguanidinium ion
7106 7114 7115 7122 3 30.28798 -4.81160 -25.47638 0.00000 0.00000 0.00000 ; imides
7107 7106 7114 7115 3 33.20422 0.00000 -33.20422 0.00000 0.00000 0.00000 ; methylguanidinium ion
7108 7109 10744 10743 3 1.58992 4.76976 0.00000 -6.35968 0.00000 0.00000
7108 7109 10744 10745 3 1.58992 4.76976 0.00000 -6.35968 0.00000 0.00000
7108 7109 10744 10746 3 1.58992 4.76976 0.00000 -6.35968 0.00000 0.00000
7109 10744 10743 10742 3 1.78866 3.49154 0.53555 -5.81576 0.00000 0.00000
7109 10744 10743 10747 3 -1.26775 3.02085 1.74473 -3.49782 0.00000 0.00000
7114 7106 7107 7108 3 33.20422 0.00000 -33.20422 0.00000 0.00000 0.00000 ; methylguanidinium ion
7114 7106 7107 7112 3 20.50160 0.00000 -20.50160 0.00000 0.00000 0.00000 ; imides
7114 7115 7122 7123 3 30.28798 -4.81160 -25.47638 0.00000 0.00000 0.00000 ; imides
7115 7122 7123 7105 3 30.28798 -4.81160 -25.47638 0.00000 0.00000 0.00000 ; imides
7115 7122 7123 7124 3 33.20422 0.00000 -33.20422 0.00000 0.00000 0.00000 ; methylguanidinium ion
7116 7115 7122 7123 3 33.20422 0.00000 -33.20422 0.00000 0.00000 0.00000 ; methylguanidinium ion
7117 4736 4735 4734 3 1.58992 4.76976 0.00000 -6.35968 0.00000 0.00000
7117 4736 4735 4737 3 1.58992 4.76976 0.00000 -6.35968 0.00000 0.00000
7117 4736 4735 4738 3 1.58992 4.76976 0.00000 -6.35968 0.00000 0.00000
7122 7115 7116 7117 3 33.20422 0.00000 -33.20422 0.00000 0.00000 0.00000 ; methylguanidinium ion
7122 7115 7116 7120 3 20.50160 0.00000 -20.50160 0.00000 0.00000 0.00000 ; imides
7123 7105 7106 7107 3 33.20422 0.00000 -33.20422 0.00000 0.00000 0.00000 ; methylguanidinium ion
7123 7105 7106 7114 3 30.28798 -4.81160 -25.47638 0.00000 0.00000 0.00000 ; imides
7125 7126 11296 11295 3 1.58992 4.76976 0.00000 -6.35968 0.00000 0.00000
7125 7126 11296 11297 3 1.58992 4.76976 0.00000 -6.35968 0.00000 0.00000
7125 7126 11296 11298 3 1.58992 4.76976 0.00000 -6.35968 0.00000 0.00000
7126 11296 11295 11294 3 1.78866 3.49154 0.53555 -5.81576 0.00000 0.00000
7126 11296 11295 11299 3 -1.26775 3.02085 1.74473 -3.49782 0.00000 0.00000
7131 7132 7139 7140 3 30.28798 -4.81160 -25.47638 0.00000 0.00000 0.00000 ; imides
7131 7148 7149 7150 3 33.20422 0.00000 -33.20422 0.00000 0.00000 0.00000 ; methylguanidinium ion
7131 7148 7149 7153 3 20.50160 0.00000 -20.50160 0.00000 0.00000 0.00000 ; imides
7132 7131 7148 7147 3 30.28798 -4.81160 -25.47638 0.00000 0.00000 0.00000 ; imides
7132 7131 7148 7149 3 33.20422 0.00000 -33.20422 0.00000 0.00000 0.00000 ; methylguanidinium ion
7132 7139 7140 7141 3 33.20422 0.00000 -33.20422 0.00000 0.00000 0.00000 ; methylguanidinium ion
7132 7139 7140 7147 3 30.28798 -4.81160 -25.47638 0.00000 0.00000 0.00000 ; imides
7133 7132 7139 7140 3 33.20422 0.00000 -33.20422 0.00000 0.00000 0.00000 ; methylguanidinium ion
7134 3455 3454 3453 3 1.58992 4.76976 0.00000 -6.35968 0.00000 0.00000
7134 3455 3454 3456 3 1.58992 4.76976 0.00000 -6.35968 0.00000 0.00000
7134 3455 3454 3457 3 1.58992 4.76976 0.00000 -6.35968 0.00000 0.00000
7139 7132 7133 7134 3 33.20422 0.00000 -33.20422 0.00000 0.00000 0.00000 ; methylguanidinium ion
7139 7132 7133 7137 3 20.50160 0.00000 -20.50160 0.00000 0.00000 0.00000 ; imides
7139 7140 7147 7148 3 30.28798 -4.81160 -25.47638 0.00000 0.00000 0.00000 ; imides
7140 7147 7148 7131 3 30.28798 -4.81160 -25.47638 0.00000 0.00000 0.00000 ; imides
7140 7147 7148 7149 3 33.20422 0.00000 -33.20422 0.00000 0.00000 0.00000 ; methylguanidinium ion
7141 7140 7147 7148 3 33.20422 0.00000 -33.20422 0.00000 0.00000 0.00000 ; methylguanidinium ion
7142 4773 4772 4771 3 1.58992 4.76976 0.00000 -6.35968 0.00000 0.00000
7142 4773 4772 4774 3 1.58992 4.76976 0.00000 -6.35968 0.00000 0.00000
7142 4773 4772 4775 3 1.58992 4.76976 0.00000 -6.35968 0.00000 0.00000
7147 7140 7141 7142 3 33.20422 0.00000 -33.20422 0.00000 0.00000 0.00000 ; methylguanidinium ion
7147 7140 7141 7145 3 20.50160 0.00000 -20.50160 0.00000 0.00000 0.00000 ; imides
7148 7131 7132 7133 3 33.20422 0.00000 -33.20422 0.00000 0.00000 0.00000 ; methylguanidinium ion
7148 7131 7132 7139 3 30.28798 -4.81160 -25.47638 0.00000 0.00000 0.00000 ; imides
7150 2283 2282 2281 3 1.58992 4.76976 0.00000 -6.35968 0.00000 0.00000
7150 2283 2282 2284 3 1.58992 4.76976 0.00000 -6.35968 0.00000 0.00000
7150 2283 2282 2285 3 1.58992 4.76976 0.00000 -6.35968 0.00000 0.00000
7155 7156 7164 7165 3 30.28798 -4.81160 -25.47638 0.00000 0.00000 0.00000 ; imides
7155 7174 7175 7176 3 33.20422 0.00000 -33.20422 0.00000 0.00000 0.00000 ; methylguanidinium ion
7155 7174 7175 7180 3 20.50160 0.00000 -20.50160 0.00000 0.00000 0.00000 ; imides
7156 7155 7174 7173 3 30.28798 -4.81160 -25.47638 0.00000 0.00000 0.00000 ; imides
7156 7155 7174 7175 3 33.20422 0.00000 -33.20422 0.00000 0.00000 0.00000 ; methylguanidinium ion
7156 7164 7165 7166 3 33.20422 0.00000 -33.20422 0.00000 0.00000 0.00000 ; methylguanidinium ion
7156 7164 7165 7173 3 30.28798 -4.81160 -25.47638 0.00000 0.00000 0.00000 ; imides
7157 7156 7164 7165 3 33.20422 0.00000 -33.20422 0.00000 0.00000 0.00000 ; methylguanidinium ion
7158 7159 12634 12633 3 1.58992 4.76976 0.00000 -6.35968 0.00000 0.00000
7158 7159 12634 12635 3 1.58992 4.76976 0.00000 -6.35968 0.00000 0.00000
7158 7159 12634 12636 3 1.58992 4.76976 0.00000 -6.35968 0.00000 0.00000
7159 12634 12633 12632 3 1.78866 3.49154 0.53555 -5.81576 0.00000 0.00000
7159 12634 12633 12637 3 -1.26775 3.02085 1.74473 -3.49782 0.00000 0.00000
7164 7156 7157 7158 3 33.20422 0.00000 -33.20422 0.00000 0.00000 0.00000 ; methylguanidinium ion
7164 7156 7157 7162 3 20.50160 0.00000 -20.50160 0.00000 0.00000 0.00000 ; imides
7164 7165 7173 7174 3 30.28798 -4.81160 -25.47638 0.00000 0.00000 0.00000 ; imides
7165 7173 7174 7155 3 30.28798 -4.81160 -25.47638 0.00000 0.00000 0.00000 ; imides
7165 7173 7174 7175 3 33.20422 0.00000 -33.20422 0.00000 0.00000 0.00000 ; methylguanidinium ion
7166 7165 7173 7174 3 33.20422 0.00000 -33.20422 0.00000 0.00000 0.00000 ; methylguanidinium ion
7167 7168 12780 12779 3 1.58992 4.76976 0.00000 -6.35968 0.00000 0.00000
7167 7168 12780 12781 3 1.58992 4.76976 0.00000 -6.35968 0.00000 0.00000
7167 7168 12780 12782 3 1.58992 4.76976 0.00000 -6.35968 0.00000 0.00000
7168 12780 12779 12778 3 1.78866 3.49154 0.53555 -5.81576 0.00000 0.00000
7168 12780 12779 12783 3 -1.26775 3.02085 1.74473 -3.49782 0.00000 0.00000
7173 7165 7166 7167 3 33.20422 0.00000 -33.20422 0.00000 0.00000 0.00000 ; methylguanidinium ion
7173 7165 7166 7171 3 20.50160 0.00000 -20.50160 0.00000 0.00000 0.00000 ; imides
7174 7155 7156 7157 3 33.20422 0.00000 -33.20422 0.00000 0.00000 0.00000 ; methylguanidinium ion
7174 7155 7156 7164 3 30.28798 -4.81160 -25.47638 0.00000 0.00000 0.00000 ; imides
7176 7177 7933 7932 3 1.58992 4.76976 0.00000 -6.35968 0.00000 0.00000
7176 7177 7933 7934 3 1.58992 4.76976 0.00000 -6.35968 0.00000 0.00000
7176 7177 7933 7935 3 1.58992 4.76976 0.00000 -6.35968 0.00000 0.00000
7177 7933 7932 7931 3 1.78866 3.49154 0.53555 -5.81576 0.00000 0.00000
7177 7933 7932 7936 3 -1.26775 3.02085 1.74473 -3.49782 0.00000 0.00000
7182 7183 7192 7193 3 30.28798 -4.81160 -25.47638 0.00000 0.00000 0.00000 ; imides
7182 7201 7202 7203 3 33.20422 0.00000 -33.20422 0.00000 0.00000 0.00000 ; methylguanidinium ion
7182 7201 7202 7206 3 20.50160 0.00000 -20.50160 0.00000 0.00000 0.00000 ; imides
7183 7182 7201 7200 3 30.28798 -4.81160 -25.47638 0.00000 0.00000 0.00000 ; imides
7183 7182 7201 7202 3 33.20422 0.00000 -33.20422 0.00000 0.00000 0.00000 ; methylguanidinium ion
7183 7192 7193 7194 3 33.20422 0.00000 -33.20422 0.00000 0.00000 0.00000 ; methylguanidinium ion
7183 7192 7193 7200 3 30.28798 -4.81160 -25.47638 0.00000 0.00000 0.00000 ; imides
7184 7183 7192 7193 3 33.20422 0.00000 -33.20422 0.00000 0.00000 0.00000 ; methylguanidinium ion
7192 7183 7184 7185 3 33.20422 0.00000 -33.20422 0.00000 0.00000 0.00000 ; methylguanidinium ion
7192 7183 7184 7190 3 20.50160 0.00000 -20.50160 0.00000 0.00000 0.00000 ; imides
7192 7193 7200 7201 3 30.28798 -4.81160 -25.47638 0.00000 0.00000 0.00000 ; imides
7193 7200 7201 7182 3 30.28798 -4.81160 -25.47638 0.00000 0.00000 0.00000 ; imides
7193 7200 7201 7202 3 33.20422 0.00000 -33.20422 0.00000 0.00000 0.00000 ; methylguanidinium ion
7194 7193 7200 7201 3 33.20422 0.00000 -33.20422 0.00000 0.00000 0.00000 ; methylguanidinium ion
7195 5528 5527 5526 3 1.58992 4.76976 0.00000 -6.35968 0.00000 0.00000
7195 5528 5527 5529 3 1.58992 4.76976 0.00000 -6.35968 0.00000 0.00000
7195 5528 5527 5530 3 1.58992 4.76976 0.00000 -6.35968 0.00000 0.00000
7200 7193 7194 7195 3 33.20422 0.00000 -33.20422 0.00000 0.00000 0.00000 ; methylguanidinium ion
7200 7193 7194 7198 3 20.50160 0.00000 -20.50160 0.00000 0.00000 0.00000 ; imides
7201 7182 7183 7184 3 33.20422 0.00000 -33.20422 0.00000 0.00000 0.00000 ; methylguanidinium ion
7201 7182 7183 7192 3 30.28798 -4.81160 -25.47638 0.00000 0.00000 0.00000 ; imides
7203 1612 1611 1610 3 1.58992 4.76976 0.00000 -6.35968 0.00000 0.00000
7203 1612 1611 1613 3 1.58992 4.76976 0.00000 -6.35968 0.00000 0.00000
7203 1612 1611 1614 3 1.58992 4.76976 0.00000 -6.35968 0.00000 0.00000
7208 7209 7216 7217 3 30.28798 -4.81160 -25.47638 0.00000 0.00000 0.00000 ; imides
7208 7226 7227 7228 3 33.20422 0.00000 -33.20422 0.00000 0.00000 0.00000 ; methylguanidinium ion
7208 7226 7227 7232 3 20.50160 0.00000 -20.50160 0.00000 0.00000 0.00000 ; imides
7209 7208 7226 7225 3 30.28798 -4.81160 -25.47638 0.00000 0.00000 0.00000 ; imides
7209 7208 7226 7227 3 33.20422 0.00000 -33.20422 0.00000 0.00000 0.00000 ; methylguanidinium ion
7209 7216 7217 7218 3 33.20422 0.00000 -33.20422 0.00000 0.00000 0.00000 ; methylguanidinium ion
7209 7216 7217 7225 3 30.28798 -4.81160 -25.47638 0.00000 0.00000 0.00000 ; imides
7210 7209 7216 7217 3 33.20422 0.00000 -33.20422 0.00000 0.00000 0.00000 ; methylguanidinium ion
7211 4938 4937 4936 3 1.58992 4.76976 0.00000 -6.35968 0.00000 0.00000
7211 4938 4937 4939 3 1.58992 4.76976 0.00000 -6.35968 0.00000 0.00000
7211 4938 4937 4940 3 1.58992 4.76976 0.00000 -6.35968 0.00000 0.00000
7216 7209 7210 7211 3 33.20422 0.00000 -33.20422 0.00000 0.00000 0.00000 ; methylguanidinium ion
7216 7209 7210 7214 3 20.50160 0.00000 -20.50160 0.00000 0.00000 0.00000 ; imides
7216 7217 7225 7226 3 30.28798 -4.81160 -25.47638 0.00000 0.00000 0.00000 ; imides
7217 7225 7226 7208 3 30.28798 -4.81160 -25.47638 0.00000 0.00000 0.00000 ; imides
7217 7225 7226 7227 3 33.20422 0.00000 -33.20422 0.00000 0.00000 0.00000 ; methylguanidinium ion
7218 7217 7225 7226 3 33.20422 0.00000 -33.20422 0.00000 0.00000 0.00000 ; methylguanidinium ion
7219 7220 10127 10126 3 1.58992 4.76976 0.00000 -6.35968 0.00000 0.00000
7219 7220 10127 10128 3 1.58992 4.76976 0.00000 -6.35968 0.00000 0.00000
7219 7220 10127 10129 3 1.58992 4.76976 0.00000 -6.35968 0.00000 0.00000
7220 10127 10126 10125 3 1.78866 3.49154 0.53555 -5.81576 0.00000 0.00000
7220 10127 10126 10130 3 -1.26775 3.02085 1.74473 -3.49782 0.00000 0.00000
7225 7217 7218 7219 3 33.20422 0.00000 -33.20422 0.00000 0.00000 0.00000 ; methylguanidinium ion
7225 7217 7218 7223 3 20.50160 0.00000 -20.50160 0.00000 0.00000 0.00000 ; imides
7226 7208 7209 7210 3 33.20422 0.00000 -33.20422 0.00000 0.00000 0.00000 ; methylguanidinium ion
7226 7208 7209 7216 3 30.28798 -4.81160 -25.47638 0.00000 0.00000 0.00000 ; imides
7228 7229 10659 10658 3 1.58992 4.76976 0.00000 -6.35968 0.00000 0.00000
7228 7229 10659 10660 3 1.58992 4.76976 0.00000 -6.35968 0.00000 0.00000
7228 7229 10659 10661 3 1.58992 4.76976 0.00000 -6.35968 0.00000 0.00000
7229 10659 10658 10657 3 1.78866 3.49154 0.53555 -5.81576 0.00000 0.00000
7229 10659 10658 10662 3 -1.26775 3.02085 1.74473 -3.49782 0.00000 0.00000
7234 7235 7242 7243 3 30.28798 -4.81160 -25.47638 0.00000 0.00000 0.00000 ; imides
7234 7251 7252 7253 3 33.20422 0.00000 -33.20422 0.00000 0.00000 0.00000 ; methylguanidinium ion
7234 7251 7252 7258 3 20.50160 0.00000 -20.50160 0.00000 0.00000 0.00000 ; imides
7235 7234 7251 7250 3 30.28798 -4.81160 -25.47638 0.00000 0.00000 0.00000 ; imides
7235 7234 7251 7252 3 33.20422 0.00000 -33.20422 0.00000 0.00000 0.00000 ; methylguanidinium ion
7235 7242 7243 7244 3 33.20422 0.00000 -33.20422 0.00000 0.00000 0.00000 ; methylguanidinium ion
7235 7242 7243 7250 3 30.28798 -4.81160 -25.47638 0.00000 0.00000 0.00000 ; imides
7236 7235 7242 7243 3 33.20422 0.00000 -33.20422 0.00000 0.00000 0.00000 ; methylguanidinium ion
7237 4411 4410 4409 3 1.58992 4.76976 0.00000 -6.35968 0.00000 0.00000
7237 4411 4410 4412 3 1.58992 4.76976 0.00000 -6.35968 0.00000 0.00000
7237 4411 4410 4413 3 1.58992 4.76976 0.00000 -6.35968 0.00000 0.00000
7242 7235 7236 7237 3 33.20422 0.00000 -33.20422 0.00000 0.00000 0.00000 ; methylguanidinium ion
7242 7235 7236 7240 3 20.50160 0.00000 -20.50160 0.00000 0.00000 0.00000 ; imides
7242 7243 7250 7251 3 30.28798 -4.81160 -25.47638 0.00000 0.00000 0.00000 ; imides
7243 7250 7251 7234 3 30.28798 -4.81160 -25.47638 0.00000 0.00000 0.00000 ; imides
7243 7250 7251 7252 3 33.20422 0.00000 -33.20422 0.00000 0.00000 0.00000 ; methylguanidinium ion
7244 7243 7250 7251 3 33.20422 0.00000 -33.20422 0.00000 0.00000 0.00000 ; methylguanidinium ion
7245 5884 5883 5882 3 1.58992 4.76976 0.00000 -6.35968 0.00000 0.00000
7245 5884 5883 5885 3 1.58992 4.76976 0.00000 -6.35968 0.00000 0.00000
7245 5884 5883 5886 3 1.58992 4.76976 0.00000 -6.35968 0.00000 0.00000
7250 7243 7244 7245 3 33.20422 0.00000 -33.20422 0.00000 0.00000 0.00000 ; methylguanidinium ion
7250 7243 7244 7248 3 20.50160 0.00000 -20.50160 0.00000 0.00000 0.00000 ; imides
7251 7234 7235 7236 3 33.20422 0.00000 -33.20422 0.00000 0.00000 0.00000 ; methylguanidinium ion
7251 7234 7235 7242 3 30.28798 -4.81160 -25.47638 0.00000 0.00000 0.00000 ; imides
7260 7261 7268 7269 3 30.28798 -4.81160 -25.47638 0.00000 0.00000 0.00000 ; imides
7260 7277 7278 7279 3 33.20422 0.00000 -33.20422 0.00000 0.00000 0.00000 ; methylguanidinium ion
7260 7277 7278 7283 3 20.50160 0.00000 -20.50160 0.00000 0.00000 0.00000 ; imides
7261 7260 7277 7276 3 30.28798 -4.81160 -25.47638 0.00000 0.00000 0.00000 ; imides
7261 7260 7277 7278 3 33.20422 0.00000 -33.20422 0.00000 0.00000 0.00000 ; methylguanidinium ion
7261 7268 7269 7270 3 33.20422 0.00000 -33.20422 0.00000 0.00000 0.00000 ; methylguanidinium ion
7261 7268 7269 7276 3 30.28798 -4.81160 -25.47638 0.00000 0.00000 0.00000 ; imides
7262 7261 7268 7269 3 33.20422 0.00000 -33.20422 0.00000 0.00000 0.00000 ; methylguanidinium ion
7263 1996 1995 1994 3 1.58992 4.76976 0.00000 -6.35968 0.00000 0.00000
7263 1996 1995 1997 3 1.58992 4.76976 0.00000 -6.35968 0.00000 0.00000
7263 1996 1995 1998 3 1.58992 4.76976 0.00000 -6.35968 0.00000 0.00000
7268 7261 7262 7263 3 33.20422 0.00000 -33.20422 0.00000 0.00000 0.00000 ; methylguanidinium ion
7268 7261 7262 7266 3 20.50160 0.00000 -20.50160 0.00000 0.00000 0.00000 ; imides
7268 7269 7276 7277 3 30.28798 -4.81160 -25.47638 0.00000 0.00000 0.00000 ; imides
7269 7276 7277 7260 3 30.28798 -4.81160 -25.47638 0.00000 0.00000 0.00000 ; imides
7269 7276 7277 7278 3 33.20422 0.00000 -33.20422 0.00000 0.00000 0.00000 ; methylguanidinium ion
7270 7269 7276 7277 3 33.20422 0.00000 -33.20422 0.00000 0.00000 0.00000 ; methylguanidinium ion
7271 299 298 297 3 1.58992 4.76976 0.00000 -6.35968 0.00000 0.00000
7271 299 298 300 3 1.58992 4.76976 0.00000 -6.35968 0.00000 0.00000
7271 299 298 301 3 1.58992 4.76976 0.00000 -6.35968 0.00000 0.00000
7276 7269 7270 7271 3 33.20422 0.00000 -33.20422 0.00000 0.00000 0.00000 ; methylguanidinium ion
7276 7269 7270 7274 3 20.50160 0.00000 -20.50160 0.00000 0.00000 0.00000 ; imides
7277 7260 7261 7262 3 33.20422 0.00000 -33.20422 0.00000 0.00000 0.00000 ; methylguanidinium ion
7277 7260 7261 7268 3 30.28798 -4.81160 -25.47638 0.00000 0.00000 0.00000 ; imides
7279 7280 11499 11498 3 1.58992 4.76976 0.00000 -6.35968 0.00000 0.00000
7279 7280 11499 11500 3 1.58992 4.76976 0.00000 -6.35968 0.00000 0.00000
7279 7280 11499 11501 3 1.58992 4.76976 0.00000 -6.35968 0.00000 0.00000
7280 11499 11498 11497 3 1.78866 3.49154 0.53555 -5.81576 0.00000 0.00000
7280 11499 11498 11502 3 -1.26775 3.02085 1.74473 -3.49782 0.00000 0.00000
7285 7286 7293 7294 3 30.28798 -4.81160 -25.47638 0.00000 0.00000 0.00000 ; imides
7285 7304 7305 7306 3 33.20422 0.00000 -33.20422 0.00000 0.00000 0.00000 ; methylguanidinium ion
7285 7304 7305 7310 3 20.50160 0.00000 -20.50160 0.00000 0.00000 0.00000 ; imides
7286 7285 7304 7303 3 30.28798 -4.81160 -25.47638 0.00000 0.00000 0.00000 ; imides
7286 7285 7304 7305 3 33.20422 0.00000 -33.20422 0.00000 0.00000 0.00000 ; methylguanidinium ion
7286 7293 7294 7295 3 33.20422 0.00000 -33.20422 0.00000 0.00000 0.00000 ; methylguanidinium ion
7286 7293 7294 7303 3 30.28798 -4.81160 -25.47638 0.00000 0.00000 0.00000 ; imides
7287 7286 7293 7294 3 33.20422 0.00000 -33.20422 0.00000 0.00000 0.00000 ; methylguanidinium ion
7288 3061 3060 3059 3 1.58992 4.76976 0.00000 -6.35968 0.00000 0.00000
7288 3061 3060 3062 3 1.58992 4.76976 0.00000 -6.35968 0.00000 0.00000
7288 3061 3060 3063 3 1.58992 4.76976 0.00000 -6.35968 0.00000 0.00000
7293 7286 7287 7288 3 33.20422 0.00000 -33.20422 0.00000 0.00000 0.00000 ; methylguanidinium ion
7293 7286 7287 7291 3 20.50160 0.00000 -20.50160 0.00000 0.00000 0.00000 ; imides
7293 7294 7303 7304 3 30.28798 -4.81160 -25.47638 0.00000 0.00000 0.00000 ; imides
7294 7303 7304 7285 3 30.28798 -4.81160 -25.47638 0.00000 0.00000 0.00000 ; imides
7294 7303 7304 7305 3 33.20422 0.00000 -33.20422 0.00000 0.00000 0.00000 ; methylguanidinium ion
7295 7294 7303 7304 3 33.20422 0.00000 -33.20422 0.00000 0.00000 0.00000 ; methylguanidinium ion
7303 7294 7295 7296 3 33.20422 0.00000 -33.20422 0.00000 0.00000 0.00000 ; methylguanidinium ion
7303 7294 7295 7301 3 20.50160 0.00000 -20.50160 0.00000 0.00000 0.00000 ; imides
7304 7285 7286 7287 3 33.20422 0.00000 -33.20422 0.00000 0.00000 0.00000 ; methylguanidinium ion
7304 7285 7286 7293 3 30.28798 -4.81160 -25.47638 0.00000 0.00000 0.00000 ; imides
7306 7307 9016 9015 3 1.58992 4.76976 0.00000 -6.35968 0.00000 0.00000
7306 7307 9016 9017 3 1.58992 4.76976 0.00000 -6.35968 0.00000 0.00000
7306 7307 9016 9018 3 1.58992 4.76976 0.00000 -6.35968 0.00000 0.00000
7307 9016 9015 9014 3 1.78866 3.49154 0.53555 -5.81576 0.00000 0.00000
7307 9016 9015 9019 3 -1.26775 3.02085 1.74473 -3.49782 0.00000 0.00000
7312 7313 7321 7322 3 30.28798 -4.81160 -25.47638 0.00000 0.00000 0.00000 ; imides
7312 7331 7332 7333 3 33.20422 0.00000 -33.20422 0.00000 0.00000 0.00000 ; methylguanidinium ion
7312 7331 7332 7338 3 20.50160 0.00000 -20.50160 0.00000 0.00000 0.00000 ; imides
7313 7312 7331 7330 3 30.28798 -4.81160 -25.47638 0.00000 0.00000 0.00000 ; imides
7313 7312 7331 7332 3 33.20422 0.00000 -33.20422 0.00000 0.00000 0.00000 ; methylguanidinium ion
7313 7321 7322 7323 3 33.20422 0.00000 -33.20422 0.00000 0.00000 0.00000 ; methylguanidinium ion
7313 7321 7322 7330 3 30.28798 -4.81160 -25.47638 0.00000 0.00000 0.00000 ; imides
7314 7313 7321 7322 3 33.20422 0.00000 -33.20422 0.00000 0.00000 0.00000 ; methylguanidinium ion
7315 7316 8515 8514 3 1.58992 4.76976 0.00000 -6.35968 0.00000 0.00000
7315 7316 8515 8516 3 1.58992 4.76976 0.00000 -6.35968 0.00000 0.00000
7315 7316 8515 8517 3 1.58992 4.76976 0.00000 -6.35968 0.00000 0.00000
7316 8515 8514 8513 3 1.78866 3.49154 0.53555 -5.81576 0.00000 0.00000
7316 8515 8514 8518 3 -1.26775 3.02085 1.74473 -3.49782 0.00000 0.00000
7321 7313 7314 7315 3 33.20422 0.00000 -33.20422 0.00000 0.00000 0.00000 ; methylguanidinium ion
7321 7313 7314 7319 3 20.50160 0.00000 -20.50160 0.00000 0.00000 0.00000 ; imides
7321 7322 7330 7331 3 30.28798 -4.81160 -25.47638 0.00000 0.00000 0.00000 ; imides
7322 7330 7331 7312 3 30.28798 -4.81160 -25.47638 0.00000 0.00000 0.00000 ; imides
7322 7330 7331 7332 3 33.20422 0.00000 -33.20422 0.00000 0.00000 0.00000 ; methylguanidinium ion
7323 7322 7330 7331 3 33.20422 0.00000 -33.20422 0.00000 0.00000 0.00000 ; methylguanidinium ion
7324 7325 8836 8835 3 1.58992 4.76976 0.00000 -6.35968 0.00000 0.00000
7324 7325 8836 8837 3 1.58992 4.76976 0.00000 -6.35968 0.00000 0.00000
7324 7325 8836 8838 3 1.58992 4.76976 0.00000 -6.35968 0.00000 0.00000
7325 8836 8835 8834 3 1.78866 3.49154 0.53555 -5.81576 0.00000 0.00000
7325 8836 8835 8839 3 -1.26775 3.02085 1.74473 -3.49782 0.00000 0.00000
7330 7322 7323 7324 3 33.20422 0.00000 -33.20422 0.00000 0.00000 0.00000 ; methylguanidinium ion
7330 7322 7323 7328 3 20.50160 0.00000 -20.50160 0.00000 0.00000 0.00000 ; imides
7331 7312 7313 7314 3 33.20422 0.00000 -33.20422 0.00000 0.00000 0.00000 ; methylguanidinium ion
7331 7312 7313 7321 3 30.28798 -4.81160 -25.47638 0.00000 0.00000 0.00000 ; imides
7340 7341 7348 7349 3 30.28798 -4.81160 -25.47638 0.00000 0.00000 0.00000 ; imides
7340 7357 7358 7359 3 33.20422 0.00000 -33.20422 0.00000 0.00000 0.00000 ; methylguanidinium ion
7340 7357 7358 7362 3 20.50160 0.00000 -20.50160 0.00000 0.00000 0.00000 ; imides
7341 7340 7357 7356 3 30.28798 -4.81160 -25.47638 0.00000 0.00000 0.00000 ; imides
7341 7340 7357 7358 3 33.20422 0.00000 -33.20422 0.00000 0.00000 0.00000 ; methylguanidinium ion
7341 7348 7349 7350 3 33.20422 0.00000 -33.20422 0.00000 0.00000 0.00000 ; methylguanidinium ion
7341 7348 7349 7356 3 30.28798 -4.81160 -25.47638 0.00000 0.00000 0.00000 ; imides
7342 7341 7348 7349 3 33.20422 0.00000 -33.20422 0.00000 0.00000 0.00000 ; methylguanidinium ion
7343 2985 2984 2983 3 1.58992 4.76976 0.00000 -6.35968 0.00000 0.00000
7343 2985 2984 2986 3 1.58992 4.76976 0.00000 -6.35968 0.00000 0.00000
7343 2985 2984 2987 3 1.58992 4.76976 0.00000 -6.35968 0.00000 0.00000
7348 7341 7342 7343 3 33.20422 0.00000 -33.20422 0.00000 0.00000 0.00000 ; methylguanidinium ion
7348 7341 7342 7346 3 20.50160 0.00000 -20.50160 0.00000 0.00000 0.00000 ; imides
7348 7349 7356 7357 3 30.28798 -4.81160 -25.47638 0.00000 0.00000 0.00000 ; imides
7349 7356 7357 7340 3 30.28798 -4.81160 -25.47638 0.00000 0.00000 0.00000 ; imides
7349 7356 7357 7358 3 33.20422 0.00000 -33.20422 0.00000 0.00000 0.00000 ; methylguanidinium ion
7350 7349 7356 7357 3 33.20422 0.00000 -33.20422 0.00000 0.00000 0.00000 ; methylguanidinium ion
7351 4126 4125 4124 3 1.58992 4.76976 0.00000 -6.35968 0.00000 0.00000
7351 4126 4125 4127 3 1.58992 4.76976 0.00000 -6.35968 0.00000 0.00000
7351 4126 4125 4128 3 1.58992 4.76976 0.00000 -6.35968 0.00000 0.00000
7356 7349 7350 7351 3 33.20422 0.00000 -33.20422 0.00000 0.00000 0.00000 ; methylguanidinium ion
7356 7349 7350 7354 3 20.50160 0.00000 -20.50160 0.00000 0.00000 0.00000 ; imides
7357 7340 7341 7342 3 33.20422 0.00000 -33.20422 0.00000 0.00000 0.00000 ; methylguanidinium ion
7357 7340 7341 7348 3 30.28798 -4.81160 -25.47638 0.00000 0.00000 0.00000 ; imides
7359 2922 2921 2920 3 1.58992 4.76976 0.00000 -6.35968 0.00000 0.00000
7359 2922 2921 2923 3 1.58992 4.76976 0.00000 -6.35968 0.00000 0.00000
7359 2922 2921 2924 3 1.58992 4.76976 0.00000 -6.35968 0.00000 0.00000
7364 7365 7373 7374 3 30.28798 -4.81160 -25.47638 0.00000 0.00000 0.00000 ; imides
7364 7384 7385 7386 3 33.20422 0.00000 -33.20422 0.00000 0.00000 0.00000 ; methylguanidinium ion
7364 7384 7385 7390 3 20.50160 0.00000 -20.50160 0.00000 0.00000 0.00000 ; imides
7365 7364 7384 7383 3 30.28798 -4.81160 -25.47638 0.00000 0.00000 0.00000 ; imides
7365 7364 7384 7385 3 33.20422 0.00000 -33.20422 0.00000 0.00000 0.00000 ; methylguanidinium ion
7365 7373 7374 7375 3 33.20422 0.00000 -33.20422 0.00000 0.00000 0.00000 ; methylguanidinium ion
7365 7373 7374 7383 3 30.28798 -4.81160 -25.47638 0.00000 0.00000 0.00000 ; imides
7366 7365 7373 7374 3 33.20422 0.00000 -33.20422 0.00000 0.00000 0.00000 ; methylguanidinium ion
7367 7368 12666 12665 3 1.58992 4.76976 0.00000 -6.35968 0.00000 0.00000
7367 7368 12666 12667 3 1.58992 4.76976 0.00000 -6.35968 0.00000 0.00000
7367 7368 12666 12668 3 1.58992 4.76976 0.00000 -6.35968 0.00000 0.00000
7368 12666 12665 12664 3 1.78866 3.49154 0.53555 -5.81576 0.00000 0.00000
7368 12666 12665 12669 3 -1.26775 3.02085 1.74473 -3.49782 0.00000 0.00000
7373 7365 7366 7367 3 33.20422 0.00000 -33.20422 0.00000 0.00000 0.00000 ; methylguanidinium ion
7373 7365 7366 7371 3 20.50160 0.00000 -20.50160 0.00000 0.00000 0.00000 ; imides
7373 7374 7383 7384 3 30.28798 -4.81160 -25.47638 0.00000 0.00000 0.00000 ; imides
7374 7383 7384 7364 3 30.28798 -4.81160 -25.47638 0.00000 0.00000 0.00000 ; imides
7374 7383 7384 7385 3 33.20422 0.00000 -33.20422 0.00000 0.00000 0.00000 ; methylguanidinium ion
7375 7374 7383 7384 3 33.20422 0.00000 -33.20422 0.00000 0.00000 0.00000 ; methylguanidinium ion
7383 7374 7375 7376 3 33.20422 0.00000 -33.20422 0.00000 0.00000 0.00000 ; methylguanidinium ion
7383 7374 7375 7381 3 20.50160 0.00000 -20.50160 0.00000 0.00000 0.00000 ; imides
7384 7364 7365 7366 3 33.20422 0.00000 -33.20422 0.00000 0.00000 0.00000 ; methylguanidinium ion
7384 7364 7365 7373 3 30.28798 -4.81160 -25.47638 0.00000 0.00000 0.00000 ; imides
7386 7387 11999 11998 3 1.58992 4.76976 0.00000 -6.35968 0.00000 0.00000
7386 7387 11999 12000 3 1.58992 4.76976 0.00000 -6.35968 0.00000 0.00000
7386 7387 11999 12001 3 1.58992 4.76976 0.00000 -6.35968 0.00000 0.00000
7387 11999 11998 11997 3 1.78866 3.49154 0.53555 -5.81576 0.00000 0.00000
7387 11999 11998 12002 3 -1.26775 3.02085 1.74473 -3.49782 0.00000 0.00000
7392 7393 7400 7401 3 30.28798 -4.81160 -25.47638 0.00000 0.00000 0.00000 ; imides
7392 7409 7410 7411 3 33.20422 0.00000 -33.20422 0.00000 0.00000 0.00000 ; methylguanidinium ion
7392 7409 7410 7414 3 20.50160 0.00000 -20.50160 0.00000 0.00000 0.00000 ; imides
7393 7392 7409 7408 3 30.28798 -4.81160 -25.47638 0.00000 0.00000 0.00000 ; imides
7393 7392 7409 7410 3 33.20422 0.00000 -33.20422 0.00000 0.00000 0.00000 ; methylguanidinium ion
7393 7400 7401 7402 3 33.20422 0.00000 -33.20422 0.00000 0.00000 0.00000 ; methylguanidinium ion
7393 7400 7401 7408 3 30.28798 -4.81160 -25.47638 0.00000 0.00000 0.00000 ; imides
7394 7393 7400 7401 3 33.20422 0.00000 -33.20422 0.00000 0.00000 0.00000 ; methylguanidinium ion
7395 5631 5630 5629 3 1.58992 4.76976 0.00000 -6.35968 0.00000 0.00000
7395 5631 5630 5632 3 1.58992 4.76976 0.00000 -6.35968 0.00000 0.00000
7395 5631 5630 5633 3 1.58992 4.76976 0.00000 -6.35968 0.00000 0.00000
7400 7393 7394 7395 3 33.20422 0.00000 -33.20422 0.00000 0.00000 0.00000 ; methylguanidinium ion
7400 7393 7394 7398 3 20.50160 0.00000 -20.50160 0.00000 0.00000 0.00000 ; imides
7400 7401 7408 7409 3 30.28798 -4.81160 -25.47638 0.00000 0.00000 0.00000 ; imides
7401 7408 7409 7392 3 30.28798 -4.81160 -25.47638 0.00000 0.00000 0.00000 ; imides
7401 7408 7409 7410 3 33.20422 0.00000 -33.20422 0.00000 0.00000 0.00000 ; methylguanidinium ion
7402 7401 7408 7409 3 33.20422 0.00000 -33.20422 0.00000 0.00000 0.00000 ; methylguanidinium ion
7403 5136 5135 5134 3 1.58992 4.76976 0.00000 -6.35968 0.00000 0.00000
7403 5136 5135 5137 3 1.58992 4.76976 0.00000 -6.35968 0.00000 0.00000
7403 5136 5135 5138 3 1.58992 4.76976 0.00000 -6.35968 0.00000 0.00000
7408 7401 7402 7403 3 33.20422 0.00000 -33.20422 0.00000 0.00000 0.00000 ; methylguanidinium ion
7408 7401 7402 7406 3 20.50160 0.00000 -20.50160 0.00000 0.00000 0.00000 ; imides
7409 7392 7393 7394 3 33.20422 0.00000 -33.20422 0.00000 0.00000 0.00000 ; methylguanidinium ion
7409 7392 7393 7400 3 30.28798 -4.81160 -25.47638 0.00000 0.00000 0.00000 ; imides
7411 6047 6046 6045 3 1.58992 4.76976 0.00000 -6.35968 0.00000 0.00000
7411 6047 6046 6048 3 1.58992 4.76976 0.00000 -6.35968 0.00000 0.00000
7411 6047 6046 6049 3 1.58992 4.76976 0.00000 -6.35968 0.00000 0.00000
7416 7417 7424 7425 3 30.28798 -4.81160 -25.47638 0.00000 0.00000 0.00000 ; imides
7416 7433 7434 7435 3 33.20422 0.00000 -33.20422 0.00000 0.00000 0.00000 ; methylguanidinium ion
7416 7433 7434 7438 3 20.50160 0.00000 -20.50160 0.00000 0.00000 0.00000 ; imides
7417 7416 7433 7432 3 30.28798 -4.81160 -25.47638 0.00000 0.00000 0.00000 ; imides
7417 7416 7433 7434 3 33.20422 0.00000 -33.20422 0.00000 0.00000 0.00000 ; methylguanidinium ion
7417 7424 7425 7426 3 33.20422 0.00000 -33.20422 0.00000 0.00000 0.00000 ; methylguanidinium ion
7417 7424 7425 7432 3 30.28798 -4.81160 -25.47638 0.00000 0.00000 0.00000 ; imides
7418 7417 7424 7425 3 33.20422 0.00000 -33.20422 0.00000 0.00000 0.00000 ; methylguanidinium ion
7419 5459 5458 5457 3 1.58992 4.76976 0.00000 -6.35968 0.00000 0.00000
7419 5459 5458 5460 3 1.58992 4.76976 0.00000 -6.35968 0.00000 0.00000
7419 5459 5458 5461 3 1.58992 4.76976 0.00000 -6.35968 0.00000 0.00000
7424 7417 7418 7419 3 33.20422 0.00000 -33.20422 0.00000 0.00000 0.00000 ; methylguanidinium ion
7424 7417 7418 7422 3 20.50160 0.00000 -20.50160 0.00000 0.00000 0.00000 ; imides
7424 7425 7432 7433 3 30.28798 -4.81160 -25.47638 0.00000 0.00000 0.00000 ; imides
7425 7432 7433 7416 3 30.28798 -4.81160 -25.47638 0.00000 0.00000 0.00000 ; imides
7425 7432 7433 7434 3 33.20422 0.00000 -33.20422 0.00000 0.00000 0.00000 ; methylguanidinium ion
7426 7425 7432 7433 3 33.20422 0.00000 -33.20422 0.00000 0.00000 0.00000 ; methylguanidinium ion
7427 2863 2862 2861 3 1.58992 4.76976 0.00000 -6.35968 0.00000 0.00000
7427 2863 2862 2864 3 1.58992 4.76976 0.00000 -6.35968 0.00000 0.00000
7427 2863 2862 2865 3 1.58992 4.76976 0.00000 -6.35968 0.00000 0.00000
7432 7425 7426 7427 3 33.20422 0.00000 -33.20422 0.00000 0.00000 0.00000 ; methylguanidinium ion
7432 7425 7426 7430 3 20.50160 0.00000 -20.50160 0.00000 0.00000 0.00000 ; imides
7433 7416 7417 7418 3 33.20422 0.00000 -33.20422 0.00000 0.00000 0.00000 ; methylguanidinium ion
7433 7416 7417 7424 3 30.28798 -4.81160 -25.47638 0.00000 0.00000 0.00000 ; imides
7435 4851 4850 4849 3 1.58992 4.76976 0.00000 -6.35968 0.00000 0.00000
7435 4851 4850 4852 3 1.58992 4.76976 0.00000 -6.35968 0.00000 0.00000
7435 4851 4850 4853 3 1.58992 4.76976 0.00000 -6.35968 0.00000 0.00000
7440 7441 7448 7449 3 30.28798 -4.81160 -25.47638 0.00000 0.00000 0.00000 ; imides
7440 7458 7459 7460 3 33.20422 0.00000 -33.20422 0.00000 0.00000 0.00000 ; methylguanidinium ion
7440 7458 7459 7464 3 20.50160 0.00000 -20.50160 0.00000 0.00000 0.00000 ; imides
7441 7440 7458 7457 3 30.28798 -4.81160 -25.47638 0.00000 0.00000 0.00000 ; imides
7441 7440 7458 7459 3 33.20422 0.00000 -33.20422 0.00000 0.00000 0.00000 ; methylguanidinium ion
7441 7448 7449 7450 3 33.20422 0.00000 -33.20422 0.00000 0.00000 0.00000 ; methylguanidinium ion
7441 7448 7449 7457 3 30.28798 -4.81160 -25.47638 0.00000 0.00000 0.00000 ; imides
7442 7441 7448 7449 3 33.20422 0.00000 -33.20422 0.00000 0.00000 0.00000 ; methylguanidinium ion
7443 4474 4473 4472 3 1.58992 4.76976 0.00000 -6.35968 0.00000 0.00000
7443 4474 4473 4475 3 1.58992 4.76976 0.00000 -6.35968 0.00000 0.00000
7443 4474 4473 4476 3 1.58992 4.76976 0.00000 -6.35968 0.00000 0.00000
7448 7441 7442 7443 3 33.20422 0.00000 -33.20422 0.00000 0.00000 0.00000 ; methylguanidinium ion
7448 7441 7442 7446 3 20.50160 0.00000 -20.50160 0.00000 0.00000 0.00000 ; imides
7448 7449 7457 7458 3 30.28798 -4.81160 -25.47638 0.00000 0.00000 0.00000 ; imides
7449 7457 7458 7440 3 30.28798 -4.81160 -25.47638 0.00000 0.00000 0.00000 ; imides
7449 7457 7458 7459 3 33.20422 0.00000 -33.20422 0.00000 0.00000 0.00000 ; methylguanidinium ion
7450 7449 7457 7458 3 33.20422 0.00000 -33.20422 0.00000 0.00000 0.00000 ; methylguanidinium ion
7451 7452 10209 10208 3 1.58992 4.76976 0.00000 -6.35968 0.00000 0.00000
7451 7452 10209 10210 3 1.58992 4.76976 0.00000 -6.35968 0.00000 0.00000
7451 7452 10209 10211 3 1.58992 4.76976 0.00000 -6.35968 0.00000 0.00000
7452 10209 10208 10207 3 1.78866 3.49154 0.53555 -5.81576 0.00000 0.00000
7452 10209 10208 10212 3 -1.26775 3.02085 1.74473 -3.49782 0.00000 0.00000
7457 7449 7450 7451 3 33.20422 0.00000 -33.20422 0.00000 0.00000 0.00000 ; methylguanidinium ion
7457 7449 7450 7455 3 20.50160 0.00000 -20.50160 0.00000 0.00000 0.00000 ; imides
7458 7440 7441 7442 3 33.20422 0.00000 -33.20422 0.00000 0.00000 0.00000 ; methylguanidinium ion
7458 7440 7441 7448 3 30.28798 -4.81160 -25.47638 0.00000 0.00000 0.00000 ; imides
7460 7461 11263 11262 3 1.58992 4.76976 0.00000 -6.35968 0.00000 0.00000
7460 7461 11263 11264 3 1.58992 4.76976 0.00000 -6.35968 0.00000 0.00000
7460 7461 11263 11265 3 1.58992 4.76976 0.00000 -6.35968 0.00000 0.00000
7461 11263 11262 11261 3 1.78866 3.49154 0.53555 -5.81576 0.00000 0.00000
7461 11263 11262 11266 3 -1.26775 3.02085 1.74473 -3.49782 0.00000 0.00000
7466 7467 7474 7475 3 30.28798 -4.81160 -25.47638 0.00000 0.00000 0.00000 ; imides
7466 7483 7484 7485 3 33.20422 0.00000 -33.20422 0.00000 0.00000 0.00000 ; methylguanidinium ion
7466 7483 7484 7490 3 20.50160 0.00000 -20.50160 0.00000 0.00000 0.00000 ; imides
7467 7466 7483 7482 3 30.28798 -4.81160 -25.47638 0.00000 0.00000 0.00000 ; imides
7467 7466 7483 7484 3 33.20422 0.00000 -33.20422 0.00000 0.00000 0.00000 ; methylguanidinium ion
7467 7474 7475 7476 3 33.20422 0.00000 -33.20422 0.00000 0.00000 0.00000 ; methylguanidinium ion
7467 7474 7475 7482 3 30.28798 -4.81160 -25.47638 0.00000 0.00000 0.00000 ; imides
7468 7467 7474 7475 3 33.20422 0.00000 -33.20422 0.00000 0.00000 0.00000 ; methylguanidinium ion
7469 3364 3363 3362 3 1.58992 4.76976 0.00000 -6.35968 0.00000 0.00000
7469 3364 3363 3365 3 1.58992 4.76976 0.00000 -6.35968 0.00000 0.00000
7469 3364 3363 3366 3 1.58992 4.76976 0.00000 -6.35968 0.00000 0.00000
7474 7467 7468 7469 3 33.20422 0.00000 -33.20422 0.00000 0.00000 0.00000 ; methylguanidinium ion
7474 7467 7468 7472 3 20.50160 0.00000 -20.50160 0.00000 0.00000 0.00000 ; imides
7474 7475 7482 7483 3 30.28798 -4.81160 -25.47638 0.00000 0.00000 0.00000 ; imides
7475 7482 7483 7466 3 30.28798 -4.81160 -25.47638 0.00000 0.00000 0.00000 ; imides
7475 7482 7483 7484 3 33.20422 0.00000 -33.20422 0.00000 0.00000 0.00000 ; methylguanidinium ion
7476 7475 7482 7483 3 33.20422 0.00000 -33.20422 0.00000 0.00000 0.00000 ; methylguanidinium ion
7477 1269 1268 1267 3 1.58992 4.76976 0.00000 -6.35968 0.00000 0.00000
7477 1269 1268 1270 3 1.58992 4.76976 0.00000 -6.35968 0.00000 0.00000
7477 1269 1268 1271 3 1.58992 4.76976 0.00000 -6.35968 0.00000 0.00000
7482 7475 7476 7477 3 33.20422 0.00000 -33.20422 0.00000 0.00000 0.00000 ; methylguanidinium ion
7482 7475 7476 7480 3 20.50160 0.00000 -20.50160 0.00000 0.00000 0.00000 ; imides
7483 7466 7467 7468 3 33.20422 0.00000 -33.20422 0.00000 0.00000 0.00000 ; methylguanidinium ion
7483 7466 7467 7474 3 30.28798 -4.81160 -25.47638 0.00000 0.00000 0.00000 ; imides
7492 7493 7501 7502 3 30.28798 -4.81160 -25.47638 0.00000 0.00000 0.00000 ; imides
7492 7510 7511 7512 3 33.20422 0.00000 -33.20422 0.00000 0.00000 0.00000 ; methylguanidinium ion
7492 7510 7511 7516 3 20.50160 0.00000 -20.50160 0.00000 0.00000 0.00000 ; imides
7493 7492 7510 7509 3 30.28798 -4.81160 -25.47638 0.00000 0.00000 0.00000 ; imides
7493 7492 7510 7511 3 33.20422 0.00000 -33.20422 0.00000 0.00000 0.00000 ; methylguanidinium ion
7493 7501 7502 7503 3 33.20422 0.00000 -33.20422 0.00000 0.00000 0.00000 ; methylguanidinium ion
7493 7501 7502 7509 3 30.28798 -4.81160 -25.47638 0.00000 0.00000 0.00000 ; imides
7494 7493 7501 7502 3 33.20422 0.00000 -33.20422 0.00000 0.00000 0.00000 ; methylguanidinium ion
7495 7496 8642 8641 3 1.58992 4.76976 0.00000 -6.35968 0.00000 0.00000
7495 7496 8642 8643 3 1.58992 4.76976 0.00000 -6.35968 0.00000 0.00000
7495 7496 8642 8644 3 1.58992 4.76976 0.00000 -6.35968 0.00000 0.00000
7496 8642 8641 8640 3 1.78866 3.49154 0.53555 -5.81576 0.00000 0.00000
7496 8642 8641 8645 3 -1.26775 3.02085 1.74473 -3.49782 0.00000 0.00000
7501 7493 7494 7495 3 33.20422 0.00000 -33.20422 0.00000 0.00000 0.00000 ; methylguanidinium ion
7501 7493 7494 7499 3 20.50160 0.00000 -20.50160 0.00000 0.00000 0.00000 ; imides
7501 7502 7509 7510 3 30.28798 -4.81160 -25.47638 0.00000 0.00000 0.00000 ; imides
7502 7509 7510 7492 3 30.28798 -4.81160 -25.47638 0.00000 0.00000 0.00000 ; imides
7502 7509 7510 7511 3 33.20422 0.00000 -33.20422 0.00000 0.00000 0.00000 ; methylguanidinium ion
7503 7502 7509 7510 3 33.20422 0.00000 -33.20422 0.00000 0.00000 0.00000 ; methylguanidinium ion
7504 1127 1126 1125 3 1.58992 4.76976 0.00000 -6.35968 0.00000 0.00000
7504 1127 1126 1128 3 1.58992 4.76976 0.00000 -6.35968 0.00000 0.00000
7504 1127 1126 1129 3 1.58992 4.76976 0.00000 -6.35968 0.00000 0.00000
7509 7502 7503 7504 3 33.20422 0.00000 -33.20422 0.00000 0.00000 0.00000 ; methylguanidinium ion
7509 7502 7503 7507 3 20.50160 0.00000 -20.50160 0.00000 0.00000 0.00000 ; imides
7510 7492 7493 7494 3 33.20422 0.00000 -33.20422 0.00000 0.00000 0.00000 ; methylguanidinium ion
7510 7492 7493 7501 3 30.28798 -4.81160 -25.47638 0.00000 0.00000 0.00000 ; imides
7512 7513 9544 9543 3 1.58992 4.76976 0.00000 -6.35968 0.00000 0.00000
7512 7513 9544 9545 3 1.58992 4.76976 0.00000 -6.35968 0.00000 0.00000
7512 7513 9544 9546 3 1.58992 4.76976 0.00000 -6.35968 0.00000 0.00000
7513 9544 9543 9542 3 1.78866 3.49154 0.53555 -5.81576 0.00000 0.00000
7513 9544 9543 9547 3 -1.26775 3.02085 1.74473 -3.49782 0.00000 0.00000
7518 7519 7527 7528 3 30.28798 -4.81160 -25.47638 0.00000 0.00000 0.00000 ; imides
7518 7536 7537 7538 3 33.20422 0.00000 -33.20422 0.00000 0.00000 0.00000 ; methylguanidinium ion
7518 7536 7537 7542 3 20.50160 0.00000 -20.50160 0.00000 0.00000 0.00000 ; imides
7519 7518 7536 7535 3 30.28798 -4.81160 -25.47638 0.00000 0.00000 0.00000 ; imides
7519 7518 7536 7537 3 33.20422 0.00000 -33.20422 0.00000 0.00000 0.00000 ; methylguanidinium ion
7519 7527 7528 7529 3 33.20422 0.00000 -33.20422 0.00000 0.00000 0.00000 ; methylguanidinium ion
7519 7527 7528 7535 3 30.28798 -4.81160 -25.47638 0.00000 0.00000 0.00000 ; imides
7520 7519 7527 7528 3 33.20422 0.00000 -33.20422 0.00000 0.00000 0.00000 ; methylguanidinium ion
7521 7522 11808 11807 3 1.58992 4.76976 0.00000 -6.35968 0.00000 0.00000
7521 7522 11808 11809 3 1.58992 4.76976 0.00000 -6.35968 0.00000 0.00000
7521 7522 11808 11810 3 1.58992 4.76976 0.00000 -6.35968 0.00000 0.00000
7522 11808 11807 11806 3 1.78866 3.49154 0.53555 -5.81576 0.00000 0.00000
7522 11808 11807 11811 3 -1.26775 3.02085 1.74473 -3.49782 0.00000 0.00000
7527 7519 7520 7521 3 33.20422 0.00000 -33.20422 0.00000 0.00000 0.00000 ; methylguanidinium ion
7527 7519 7520 7525 3 20.50160 0.00000 -20.50160 0.00000 0.00000 0.00000 ; imides
7527 7528 7535 7536 3 30.28798 -4.81160 -25.47638 0.00000 0.00000 0.00000 ; imides
7528 7535 7536 7518 3 30.28798 -4.81160 -25.47638 0.00000 0.00000 0.00000 ; imides
7528 7535 7536 7537 3 33.20422 0.00000 -33.20422 0.00000 0.00000 0.00000 ; methylguanidinium ion
7529 7528 7535 7536 3 33.20422 0.00000 -33.20422 0.00000 0.00000 0.00000 ; methylguanidinium ion
7530 5070 5069 5068 3 1.58992 4.76976 0.00000 -6.35968 0.00000 0.00000
7530 5070 5069 5071 3 1.58992 4.76976 0.00000 -6.35968 0.00000 0.00000
7530 5070 5069 5072 3 1.58992 4.76976 0.00000 -6.35968 0.00000 0.00000
7535 7528 7529 7530 3 33.20422 0.00000 -33.20422 0.00000 0.00000 0.00000 ; methylguanidinium ion
7535 7528 7529 7533 3 20.50160 0.00000 -20.50160 0.00000 0.00000 0.00000 ; imides
7536 7518 7519 7520 3 33.20422 0.00000 -33.20422 0.00000 0.00000 0.00000 ; methylguanidinium ion
7536 7518 7519 7527 3 30.28798 -4.81160 -25.47638 0.00000 0.00000 0.00000 ; imides
7538 7539 11019 11018 3 1.58992 4.76976 0.00000 -6.35968 0.00000 0.00000
7538 7539 11019 11020 3 1.58992 4.76976 0.00000 -6.35968 0.00000 0.00000
7538 7539 11019 11021 3 1.58992 4.76976 0.00000 -6.35968 0.00000 0.00000
7539 11019 11018 11017 3 1.78866 3.49154 0.53555 -5.81576 0.00000 0.00000
7539 11019 11018 11022 3 -1.26775 3.02085 1.74473 -3.49782 0.00000 0.00000
7544 7545 7552 7553 3 30.28798 -4.81160 -25.47638 0.00000 0.00000 0.00000 ; imides
7544 7562 7563 7564 3 33.20422 0.00000 -33.20422 0.00000 0.00000 0.00000 ; methylguanidinium ion
7544 7562 7563 7568 3 20.50160 0.00000 -20.50160 0.00000 0.00000 0.00000 ; imides
7545 7544 7562 7561 3 30.28798 -4.81160 -25.47638 0.00000 0.00000 0.00000 ; imides
7545 7544 7562 7563 3 33.20422 0.00000 -33.20422 0.00000 0.00000 0.00000 ; methylguanidinium ion
7545 7552 7553 7554 3 33.20422 0.00000 -33.20422 0.00000 0.00000 0.00000 ; methylguanidinium ion
7545 7552 7553 7561 3 30.28798 -4.81160 -25.47638 0.00000 0.00000 0.00000 ; imides
7546 7545 7552 7553 3 33.20422 0.00000 -33.20422 0.00000 0.00000 0.00000 ; methylguanidinium ion
7547 4011 4010 4009 3 1.58992 4.76976 0.00000 -6.35968 0.00000 0.00000
7547 4011 4010 4012 3 1.58992 4.76976 0.00000 -6.35968 0.00000 0.00000
7547 4011 4010 4013 3 1.58992 4.76976 0.00000 -6.35968 0.00000 0.00000
7552 7545 7546 7547 3 33.20422 0.00000 -33.20422 0.00000 0.00000 0.00000 ; methylguanidinium ion
7552 7545 7546 7550 3 20.50160 0.00000 -20.50160 0.00000 0.00000 0.00000 ; imides
7552 7553 7561 7562 3 30.28798 -4.81160 -25.47638 0.00000 0.00000 0.00000 ; imides
7553 7561 7562 7544 3 30.28798 -4.81160 -25.47638 0.00000 0.00000 0.00000 ; imides
7553 7561 7562 7563 3 33.20422 0.00000 -33.20422 0.00000 0.00000 0.00000 ; methylguanidinium ion
7554 7553 7561 7562 3 33.20422 0.00000 -33.20422 0.00000 0.00000 0.00000 ; methylguanidinium ion
7555 7556 9946 9945 3 1.58992 4.76976 0.00000 -6.35968 0.00000 0.00000
7555 7556 9946 9947 3 1.58992 4.76976 0.00000 -6.35968 0.00000 0.00000
7555 7556 9946 9948 3 1.58992 4.76976 0.00000 -6.35968 0.00000 0.00000
7556 9946 9945 9944 3 1.78866 3.49154 0.53555 -5.81576 0.00000 0.00000
7556 9946 9945 9949 3 -1.26775 3.02085 1.74473 -3.49782 0.00000 0.00000
7561 7553 7554 7555 3 33.20422 0.00000 -33.20422 0.00000 0.00000 0.00000 ; methylguanidinium ion
7561 7553 7554 7559 3 20.50160 0.00000 -20.50160 0.00000 0.00000 0.00000 ; imides
7562 7544 7545 7546 3 33.20422 0.00000 -33.20422 0.00000 0.00000 0.00000 ; methylguanidinium ion
7562 7544 7545 7552 3 30.28798 -4.81160 -25.47638 0.00000 0.00000 0.00000 ; imides
7564 7565 12940 12939 3 1.58992 4.76976 0.00000 -6.35968 0.00000 0.00000
7564 7565 12940 12941 3 1.58992 4.76976 0.00000 -6.35968 0.00000 0.00000
7564 7565 12940 12942 3 1.58992 4.76976 0.00000 -6.35968 0.00000 0.00000
7565 12940 12939 12938 3 1.78866 3.49154 0.53555 -5.81576 0.00000 0.00000
7565 12940 12939 12943 3 -1.26775 3.02085 1.74473 -3.49782 0.00000 0.00000
7570 7571 7579 7580 3 30.28798 -4.81160 -25.47638 0.00000 0.00000 0.00000 ; imides
7570 7589 7590 7591 3 33.20422 0.00000 -33.20422 0.00000 0.00000 0.00000 ; methylguanidinium ion
7570 7589 7590 7596 3 20.50160 0.00000 -20.50160 0.00000 0.00000 0.00000 ; imides
7571 7570 7589 7588 3 30.28798 -4.81160 -25.47638 0.00000 0.00000 0.00000 ; imides
7571 7570 7589 7590 3 33.20422 0.00000 -33.20422 0.00000 0.00000 0.00000 ; methylguanidinium ion
7571 7579 7580 7581 3 33.20422 0.00000 -33.20422 0.00000 0.00000 0.00000 ; methylguanidinium ion
7571 7579 7580 7588 3 30.28798 -4.81160 -25.47638 0.00000 0.00000 0.00000 ; imides
7572 7571 7579 7580 3 33.20422 0.00000 -33.20422 0.00000 0.00000 0.00000 ; methylguanidinium ion
7573 7574 8177 8176 3 1.58992 4.76976 0.00000 -6.35968 0.00000 0.00000
7573 7574 8177 8178 3 1.58992 4.76976 0.00000 -6.35968 0.00000 0.00000
7573 7574 8177 8179 3 1.58992 4.76976 0.00000 -6.35968 0.00000 0.00000
7574 8177 8176 8175 3 1.78866 3.49154 0.53555 -5.81576 0.00000 0.00000
7574 8177 8176 8180 3 -1.26775 3.02085 1.74473 -3.49782 0.00000 0.00000
7579 7571 7572 7573 3 33.20422 0.00000 -33.20422 0.00000 0.00000 0.00000 ; methylguanidinium ion
7579 7571 7572 7577 3 20.50160 0.00000 -20.50160 0.00000 0.00000 0.00000 ; imides
7579 7580 7588 7589 3 30.28798 -4.81160 -25.47638 0.00000 0.00000 0.00000 ; imides
7580 7588 7589 7570 3 30.28798 -4.81160 -25.47638 0.00000 0.00000 0.00000 ; imides
7580 7588 7589 7590 3 33.20422 0.00000 -33.20422 0.00000 0.00000 0.00000 ; methylguanidinium ion
7581 7580 7588 7589 3 33.20422 0.00000 -33.20422 0.00000 0.00000 0.00000 ; methylguanidinium ion
7582 7583 11255 11254 3 1.58992 4.76976 0.00000 -6.35968 0.00000 0.00000
7582 7583 11255 11256 3 1.58992 4.76976 0.00000 -6.35968 0.00000 0.00000
7582 7583 11255 11257 3 1.58992 4.76976 0.00000 -6.35968 0.00000 0.00000
7583 11255 11254 11253 3 1.78866 3.49154 0.53555 -5.81576 0.00000 0.00000
7583 11255 11254 11258 3 -1.26775 3.02085 1.74473 -3.49782 0.00000 0.00000
7588 7580 7581 7582 3 33.20422 0.00000 -33.20422 0.00000 0.00000 0.00000 ; methylguanidinium ion
7588 7580 7581 7586 3 20.50160 0.00000 -20.50160 0.00000 0.00000 0.00000 ; imides
7589 7570 7571 7572 3 33.20422 0.00000 -33.20422 0.00000 0.00000 0.00000 ; methylguanidinium ion
7589 7570 7571 7579 3 30.28798 -4.81160 -25.47638 0.00000 0.00000 0.00000 ; imides
7598 7599 7606 7607 3 30.28798 -4.81160 -25.47638 0.00000 0.00000 0.00000 ; imides
7598 7615 7616 7617 3 33.20422 0.00000 -33.20422 0.00000 0.00000 0.00000 ; methylguanidinium ion
7598 7615 7616 7620 3 20.50160 0.00000 -20.50160 0.00000 0.00000 0.00000 ; imides
7599 7598 7615 7614 3 30.28798 -4.81160 -25.47638 0.00000 0.00000 0.00000 ; imides
7599 7598 7615 7616 3 33.20422 0.00000 -33.20422 0.00000 0.00000 0.00000 ; methylguanidinium ion
7599 7606 7607 7608 3 33.20422 0.00000 -33.20422 0.00000 0.00000 0.00000 ; methylguanidinium ion
7599 7606 7607 7614 3 30.28798 -4.81160 -25.47638 0.00000 0.00000 0.00000 ; imides
7600 7599 7606 7607 3 33.20422 0.00000 -33.20422 0.00000 0.00000 0.00000 ; methylguanidinium ion
7601 6807 6806 6805 3 1.58992 4.76976 0.00000 -6.35968 0.00000 0.00000
7601 6807 6806 6808 3 1.58992 4.76976 0.00000 -6.35968 0.00000 0.00000
7601 6807 6806 6809 3 1.58992 4.76976 0.00000 -6.35968 0.00000 0.00000
7606 7599 7600 7601 3 33.20422 0.00000 -33.20422 0.00000 0.00000 0.00000 ; methylguanidinium ion
7606 7599 7600 7604 3 20.50160 0.00000 -20.50160 0.00000 0.00000 0.00000 ; imides
7606 7607 7614 7615 3 30.28798 -4.81160 -25.47638 0.00000 0.00000 0.00000 ; imides
7607 7614 7615 7598 3 30.28798 -4.81160 -25.47638 0.00000 0.00000 0.00000 ; imides
7607 7614 7615 7616 3 33.20422 0.00000 -33.20422 0.00000 0.00000 0.00000 ; methylguanidinium ion
7608 7607 7614 7615 3 33.20422 0.00000 -33.20422 0.00000 0.00000 0.00000 ; methylguanidinium ion
7609 518 517 516 3 1.58992 4.76976 0.00000 -6.35968 0.00000 0.00000
7609 518 517 519 3 1.58992 4.76976 0.00000 -6.35968 0.00000 0.00000
7609 518 517 520 3 1.58992 4.76976 0.00000 -6.35968 0.00000 0.00000
7614 7607 7608 7609 3 33.20422 0.00000 -33.20422 0.00000 0.00000 0.00000 ; methylguanidinium ion
7614 7607 7608 7612 3 20.50160 0.00000 -20.50160 0.00000 0.00000 0.00000 ; imides
7615 7598 7599 7600 3 33.20422 0.00000 -33.20422 0.00000 0.00000 0.00000 ; methylguanidinium ion
7615 7598 7599 7606 3 30.28798 -4.81160 -25.47638 0.00000 0.00000 0.00000 ; imides
7617 4392 4391 4390 3 1.58992 4.76976 0.00000 -6.35968 0.00000 0.00000
7617 4392 4391 4393 3 1.58992 4.76976 0.00000 -6.35968 0.00000 0.00000
7617 4392 4391 4394 3 1.58992 4.76976 0.00000 -6.35968 0.00000 0.00000
7622 7623 7632 7633 3 30.28798 -4.81160 -25.47638 0.00000 0.00000 0.00000 ; imides
7622 7642 7643 7644 3 33.20422 0.00000 -33.20422 0.00000 0.00000 0.00000 ; methylguanidinium ion
7622 7642 7643 7648 3 20.50160 0.00000 -20.50160 0.00000 0.00000 0.00000 ; imides
7623 7622 7642 7641 3 30.28798 -4.81160 -25.47638 0.00000 0.00000 0.00000 ; imides
7623 7622 7642 7643 3 33.20422 0.00000 -33.20422 0.00000 0.00000 0.00000 ; methylguanidinium ion
7623 7632 7633 7634 3 33.20422 0.00000 -33.20422 0.00000 0.00000 0.00000 ; methylguanidinium ion
7623 7632 7633 7641 3 30.28798 -4.81160 -25.47638 0.00000 0.00000 0.00000 ; imides
7624 7623 7632 7633 3 33.20422 0.00000 -33.20422 0.00000 0.00000 0.00000 ; methylguanidinium ion
7632 7623 7624 7625 3 33.20422 0.00000 -33.20422 0.00000 0.00000 0.00000 ; methylguanidinium ion
7632 7623 7624 7630 3 20.50160 0.00000 -20.50160 0.00000 0.00000 0.00000 ; imides
7632 7633 7641 7642 3 30.28798 -4.81160 -25.47638 0.00000 0.00000 0.00000 ; imides
7633 7641 7642 7622 3 30.28798 -4.81160 -25.47638 0.00000 0.00000 0.00000 ; imides
7633 7641 7642 7643 3 33.20422 0.00000 -33.20422 0.00000 0.00000 0.00000 ; methylguanidinium ion
7634 7633 7641 7642 3 33.20422 0.00000 -33.20422 0.00000 0.00000 0.00000 ; methylguanidinium ion
7635 7636 12732 12731 3 1.58992 4.76976 0.00000 -6.35968 0.00000 0.00000
7635 7636 12732 12733 3 1.58992 4.76976 0.00000 -6.35968 0.00000 0.00000
7635 7636 12732 12734 3 1.58992 4.76976 0.00000 -6.35968 0.00000 0.00000
7636 12732 12731 12730 3 1.78866 3.49154 0.53555 -5.81576 0.00000 0.00000
7636 12732 12731 12735 3 -1.26775 3.02085 1.74473 -3.49782 0.00000 0.00000
7641 7633 7634 7635 3 33.20422 0.00000 -33.20422 0.00000 0.00000 0.00000 ; methylguanidinium ion
7641 7633 7634 7639 3 20.50160 0.00000 -20.50160 0.00000 0.00000 0.00000 ; imides
7642 7622 7623 7624 3 33.20422 0.00000 -33.20422 0.00000 0.00000 0.00000 ; methylguanidinium ion
7642 7622 7623 7632 3 30.28798 -4.81160 -25.47638 0.00000 0.00000 0.00000 ; imides
7644 7645 12882 12881 3 1.58992 4.76976 0.00000 -6.35968 0.00000 0.00000
7644 7645 12882 12883 3 1.58992 4.76976 0.00000 -6.35968 0.00000 0.00000
7644 7645 12882 12884 3 1.58992 4.76976 0.00000 -6.35968 0.00000 0.00000
7645 12882 12881 12880 3 1.78866 3.49154 0.53555 -5.81576 0.00000 0.00000
7645 12882 12881 12885 3 -1.26775 3.02085 1.74473 -3.49782 0.00000 0.00000
7650 7651 7658 7659 3 30.28798 -4.81160 -25.47638 0.00000 0.00000 0.00000 ; imides
7650 7667 7668 7669 3 33.20422 0.00000 -33.20422 0.00000 0.00000 0.00000 ; methylguanidinium ion
7650 7667 7668 7673 3 20.50160 0.00000 -20.50160 0.00000 0.00000 0.00000 ; imides
7651 7650 7667 7666 3 30.28798 -4.81160 -25.47638 0.00000 0.00000 0.00000 ; imides
7651 7650 7667 7668 3 33.20422 0.00000 -33.20422 0.00000 0.00000 0.00000 ; methylguanidinium ion
7651 7658 7659 7660 3 33.20422 0.00000 -33.20422 0.00000 0.00000 0.00000 ; methylguanidinium ion
7651 7658 7659 7666 3 30.28798 -4.81160 -25.47638 0.00000 0.00000 0.00000 ; imides
7652 7651 7658 7659 3 33.20422 0.00000 -33.20422 0.00000 0.00000 0.00000 ; methylguanidinium ion
7653 3545 3544 3543 3 1.58992 4.76976 0.00000 -6.35968 0.00000 0.00000
7653 3545 3544 3546 3 1.58992 4.76976 0.00000 -6.35968 0.00000 0.00000
7653 3545 3544 3547 3 1.58992 4.76976 0.00000 -6.35968 0.00000 0.00000
7658 7651 7652 7653 3 33.20422 0.00000 -33.20422 0.00000 0.00000 0.00000 ; methylguanidinium ion
7658 7651 7652 7656 3 20.50160 0.00000 -20.50160 0.00000 0.00000 0.00000 ; imides
7658 7659 7666 7667 3 30.28798 -4.81160 -25.47638 0.00000 0.00000 0.00000 ; imides
7659 7666 7667 7650 3 30.28798 -4.81160 -25.47638 0.00000 0.00000 0.00000 ; imides
7659 7666 7667 7668 3 33.20422 0.00000 -33.20422 0.00000 0.00000 0.00000 ; methylguanidinium ion
7660 7659 7666 7667 3 33.20422 0.00000 -33.20422 0.00000 0.00000 0.00000 ; methylguanidinium ion
7661 2023 2022 2021 3 1.58992 4.76976 0.00000 -6.35968 0.00000 0.00000
7661 2023 2022 2024 3 1.58992 4.76976 0.00000 -6.35968 0.00000 0.00000
7661 2023 2022 2025 3 1.58992 4.76976 0.00000 -6.35968 0.00000 0.00000
7666 7659 7660 7661 3 33.20422 0.00000 -33.20422 0.00000 0.00000 0.00000 ; methylguanidinium ion
7666 7659 7660 7664 3 20.50160 0.00000 -20.50160 0.00000 0.00000 0.00000 ; imides
7667 7650 7651 7652 3 33.20422 0.00000 -33.20422 0.00000 0.00000 0.00000 ; methylguanidinium ion
7667 7650 7651 7658 3 30.28798 -4.81160 -25.47638 0.00000 0.00000 0.00000 ; imides
7669 7670 11743 11742 3 1.58992 4.76976 0.00000 -6.35968 0.00000 0.00000
7669 7670 11743 11744 3 1.58992 4.76976 0.00000 -6.35968 0.00000 0.00000
7669 7670 11743 11745 3 1.58992 4.76976 0.00000 -6.35968 0.00000 0.00000
7670 11743 11742 11741 3 1.78866 3.49154 0.53555 -5.81576 0.00000 0.00000
7670 11743 11742 11746 3 -1.26775 3.02085 1.74473 -3.49782 0.00000 0.00000
7675 7676 7683 7684 3 30.28798 -4.81160 -25.47638 0.00000 0.00000 0.00000 ; imides
7675 7692 7693 7694 3 33.20422 0.00000 -33.20422 0.00000 0.00000 0.00000 ; methylguanidinium ion
7675 7692 7693 7698 3 20.50160 0.00000 -20.50160 0.00000 0.00000 0.00000 ; imides
7676 7675 7692 7691 3 30.28798 -4.81160 -25.47638 0.00000 0.00000 0.00000 ; imides
7676 7675 7692 7693 3 33.20422 0.00000 -33.20422 0.00000 0.00000 0.00000 ; methylguanidinium ion
7676 7683 7684 7685 3 33.20422 0.00000 -33.20422 0.00000 0.00000 0.00000 ; methylguanidinium ion
7676 7683 7684 7691 3 30.28798 -4.81160 -25.47638 0.00000 0.00000 0.00000 ; imides
7677 7676 7683 7684 3 33.20422 0.00000 -33.20422 0.00000 0.00000 0.00000 ; methylguanidinium ion
7678 2041 2040 2039 3 1.58992 4.76976 0.00000 -6.35968 0.00000 0.00000
7678 2041 2040 2042 3 1.58992 4.76976 0.00000 -6.35968 0.00000 0.00000
7678 2041 2040 2043 3 1.58992 4.76976 0.00000 -6.35968 0.00000 0.00000
7683 7676 7677 7678 3 33.20422 0.00000 -33.20422 0.00000 0.00000 0.00000 ; methylguanidinium ion
7683 7676 7677 7681 3 20.50160 0.00000 -20.50160 0.00000 0.00000 0.00000 ; imides
7683 7684 7691 7692 3 30.28798 -4.81160 -25.47638 0.00000 0.00000 0.00000 ; imides
7684 7691 7692 7675 3 30.28798 -4.81160 -25.47638 0.00000 0.00000 0.00000 ; imides
7684 7691 7692 7693 3 33.20422 0.00000 -33.20422 0.00000 0.00000 0.00000 ; methylguanidinium ion
7685 7684 7691 7692 3 33.20422 0.00000 -33.20422 0.00000 0.00000 0.00000 ; methylguanidinium ion
7686 6423 6422 6421 3 1.58992 4.76976 0.00000 -6.35968 0.00000 0.00000
7686 6423 6422 6424 3 1.58992 4.76976 0.00000 -6.35968 0.00000 0.00000
7686 6423 6422 6425 3 1.58992 4.76976 0.00000 -6.35968 0.00000 0.00000
7691 7684 7685 7686 3 33.20422 0.00000 -33.20422 0.00000 0.00000 0.00000 ; methylguanidinium ion
7691 7684 7685 7689 3 20.50160 0.00000 -20.50160 0.00000 0.00000 0.00000 ; imides
7692 7675 7676 7677 3 33.20422 0.00000 -33.20422 0.00000 0.00000 0.00000 ; methylguanidinium ion
7692 7675 7676 7683 3 30.28798 -4.81160 -25.47638 0.00000 0.00000 0.00000 ; imides
7694 7695 11116 11115 3 1.58992 4.76976 0.00000 -6.35968 0.00000 0.00000
7694 7695 11116 11117 3 1.58992 4.76976 0.00000 -6.35968 0.00000 0.00000
7694 7695 11116 11118 3 1.58992 4.76976 0.00000 -6.35968 0.00000 0.00000
7695 11116 11115 11114 3 1.78866 3.49154 0.53555 -5.81576 0.00000 0.00000
7695 11116 11115 11119 3 -1.26775 3.02085 1.74473 -3.49782 0.00000 0.00000
7700 7701 7709 7710 3 30.28798 -4.81160 -25.47638 0.00000 0.00000 0.00000 ; imides
7700 7719 7720 7721 3 33.20422 0.00000 -33.20422 0.00000 0.00000 0.00000 ; methylguanidinium ion
7700 7719 7720 7724 3 20.50160 0.00000 -20.50160 0.00000 0.00000 0.00000 ; imides
7701 7700 7719 7718 3 30.28798 -4.81160 -25.47638 0.00000 0.00000 0.00000 ; imides
7701 7700 7719 7720 3 33.20422 0.00000 -33.20422 0.00000 0.00000 0.00000 ; methylguanidinium ion
7701 7709 7710 7711 3 33.20422 0.00000 -33.20422 0.00000 0.00000 0.00000 ; methylguanidinium ion
7701 7709 7710 7718 3 30.28798 -4.81160 -25.47638 0.00000 0.00000 0.00000 ; imides
7702 7701 7709 7710 3 33.20422 0.00000 -33.20422 0.00000 0.00000 0.00000 ; methylguanidinium ion
7703 7704 10585 10584 3 1.58992 4.76976 0.00000 -6.35968 0.00000 0.00000
7703 7704 10585 10586 3 1.58992 4.76976 0.00000 -6.35968 0.00000 0.00000
7703 7704 10585 10587 3 1.58992 4.76976 0.00000 -6.35968 0.00000 0.00000
7704 10585 10584 10583 3 1.78866 3.49154 0.53555 -5.81576 0.00000 0.00000
7704 10585 10584 10588 3 -1.26775 3.02085 1.74473 -3.49782 0.00000 0.00000
7709 7701 7702 7703 3 33.20422 0.00000 -33.20422 0.00000 0.00000 0.00000 ; methylguanidinium ion
7709 7701 7702 7707 3 20.50160 0.00000 -20.50160 0.00000 0.00000 0.00000 ; imides
7709 7710 7718 7719 3 30.28798 -4.81160 -25.47638 0.00000 0.00000 0.00000 ; imides
7710 7718 7719 7700 3 30.28798 -4.81160 -25.47638 0.00000 0.00000 0.00000 ; imides
7710 7718 7719 7720 3 33.20422 0.00000 -33.20422 0.00000 0.00000 0.00000 ; methylguanidinium ion
7711 7710 7718 7719 3 33.20422 0.00000 -33.20422 0.00000 0.00000 0.00000 ; methylguanidinium ion
7712 7713 12041 12040 3 1.58992 4.76976 0.00000 -6.35968 0.00000 0.00000
7712 7713 12041 12042 3 1.58992 4.76976 0.00000 -6.35968 0.00000 0.00000
7712 7713 12041 12043 3 1.58992 4.76976 0.00000 -6.35968 0.00000 0.00000
7713 12041 12040 12039 3 1.78866 3.49154 0.53555 -5.81576 0.00000 0.00000
7713 12041 12040 12044 3 -1.26775 3.02085 1.74473 -3.49782 0.00000 0.00000
7718 7710 7711 7712 3 33.20422 0.00000 -33.20422 0.00000 0.00000 0.00000 ; methylguanidinium ion
7718 7710 7711 7716 3 20.50160 0.00000 -20.50160 0.00000 0.00000 0.00000 ; imides
7719 7700 7701 7702 3 33.20422 0.00000 -33.20422 0.00000 0.00000 0.00000 ; methylguanidinium ion
7719 7700 7701 7709 3 30.28798 -4.81160 -25.47638 0.00000 0.00000 0.00000 ; imides
7721 544 543 542 3 1.58992 4.76976 0.00000 -6.35968 0.00000 0.00000
7721 544 543 545 3 1.58992 4.76976 0.00000 -6.35968 0.00000 0.00000
7721 544 543 546 3 1.58992 4.76976 0.00000 -6.35968 0.00000 0.00000
7726 7727 7735 7736 3 30.28798 -4.81160 -25.47638 0.00000 0.00000 0.00000 ; imides
7726 7745 7746 7747 3 33.20422 0.00000 -33.20422 0.00000 0.00000 0.00000 ; methylguanidinium ion
7726 7745 7746 7750 3 20.50160 0.00000 -20.50160 0.00000 0.00000 0.00000 ; imides
7727 7726 7745 7744 3 30.28798 -4.81160 -25.47638 0.00000 0.00000 0.00000 ; imides
7727 7726 7745 7746 3 33.20422 0.00000 -33.20422 0.00000 0.00000 0.00000 ; methylguanidinium ion
7727 7735 7736 7737 3 33.20422 0.00000 -33.20422 0.00000 0.00000 0.00000 ; methylguanidinium ion
7727 7735 7736 7744 3 30.28798 -4.81160 -25.47638 0.00000 0.00000 0.00000 ; imides
7728 7727 7735 7736 3 33.20422 0.00000 -33.20422 0.00000 0.00000 0.00000 ; methylguanidinium ion
7729 7730 8396 8395 3 1.58992 4.76976 0.00000 -6.35968 0.00000 0.00000
7729 7730 8396 8397 3 1.58992 4.76976 0.00000 -6.35968 0.00000 0.00000
7729 7730 8396 8398 3 1.58992 4.76976 0.00000 -6.35968 0.00000 0.00000
7730 8396 8395 8394 3 1.78866 3.49154 0.53555 -5.81576 0.00000 0.00000
7730 8396 8395 8399 3 -1.26775 3.02085 1.74473 -3.49782 0.00000 0.00000
7735 7727 7728 7729 3 33.20422 0.00000 -33.20422 0.00000 0.00000 0.00000 ; methylguanidinium ion
7735 7727 7728 7733 3 20.50160 0.00000 -20.50160 0.00000 0.00000 0.00000 ; imides
7735 7736 7744 7745 3 30.28798 -4.81160 -25.47638 0.00000 0.00000 0.00000 ; imides
7736 7744 7745 7726 3 30.28798 -4.81160 -25.47638 0.00000 0.00000 0.00000 ; imides
7736 7744 7745 7746 3 33.20422 0.00000 -33.20422 0.00000 0.00000 0.00000 ; methylguanidinium ion
7737 7736 7744 7745 3 33.20422 0.00000 -33.20422 0.00000 0.00000 0.00000 ; methylguanidinium ion
7738 7739 11702 11701 3 1.58992 4.76976 0.00000 -6.35968 0.00000 0.00000
7738 7739 11702 11703 3 1.58992 4.76976 0.00000 -6.35968 0.00000 0.00000
7738 7739 11702 11704 3 1.58992 4.76976 0.00000 -6.35968 0.00000 0.00000
7739 11702 11701 11700 3 1.78866 3.49154 0.53555 -5.81576 0.00000 0.00000
7739 11702 11701 11705 3 -1.26775 3.02085 1.74473 -3.49782 0.00000 0.00000
7744 7736 7737 7738 3 33.20422 0.00000 -33.20422 0.00000 0.00000 0.00000 ; methylguanidinium ion
7744 7736 7737 7742 3 20.50160 0.00000 -20.50160 0.00000 0.00000 0.00000 ; imides
7745 7726 7727 7728 3 33.20422 0.00000 -33.20422 0.00000 0.00000 0.00000 ; methylguanidinium ion
7745 7726 7727 7735 3 30.28798 -4.81160 -25.47638 0.00000 0.00000 0.00000 ; imides
7747 1172 1171 1170 3 1.58992 4.76976 0.00000 -6.35968 0.00000 0.00000
7747 1172 1171 1173 3 1.58992 4.76976 0.00000 -6.35968 0.00000 0.00000
7747 1172 1171 1174 3 1.58992 4.76976 0.00000 -6.35968 0.00000 0.00000
7752 7753 7760 7761 3 30.28798 -4.81160 -25.47638 0.00000 0.00000 0.00000 ; imides
7752 7770 7771 7772 3 33.20422 0.00000 -33.20422 0.00000 0.00000 0.00000 ; methylguanidinium ion
7752 7770 7771 7775 3 20.50160 0.00000 -20.50160 0.00000 0.00000 0.00000 ; imides
7753 7752 7770 7769 3 30.28798 -4.81160 -25.47638 0.00000 0.00000 0.00000 ; imides
7753 7752 7770 7771 3 33.20422 0.00000 -33.20422 0.00000 0.00000 0.00000 ; methylguanidinium ion
7753 7760 7761 7762 3 33.20422 0.00000 -33.20422 0.00000 0.00000 0.00000 ; methylguanidinium ion
7753 7760 7761 7769 3 30.28798 -4.81160 -25.47638 0.00000 0.00000 0.00000 ; imides
7754 7753 7760 7761 3 33.20422 0.00000 -33.20422 0.00000 0.00000 0.00000 ; methylguanidinium ion
7755 5197 5196 5195 3 1.58992 4.76976 0.00000 -6.35968 0.00000 0.00000
7755 5197 5196 5198 3 1.58992 4.76976 0.00000 -6.35968 0.00000 0.00000
7755 5197 5196 5199 3 1.58992 4.76976 0.00000 -6.35968 0.00000 0.00000
7760 7753 7754 7755 3 33.20422 0.00000 -33.20422 0.00000 0.00000 0.00000 ; methylguanidinium ion
7760 7753 7754 7758 3 20.50160 0.00000 -20.50160 0.00000 0.00000 0.00000 ; imides
7760 7761 7769 7770 3 30.28798 -4.81160 -25.47638 0.00000 0.00000 0.00000 ; imides
7761 7769 7770 7752 3 30.28798 -4.81160 -25.47638 0.00000 0.00000 0.00000 ; imides
7761 7769 7770 7771 3 33.20422 0.00000 -33.20422 0.00000 0.00000 0.00000 ; methylguanidinium ion
7762 7761 7769 7770 3 33.20422 0.00000 -33.20422 0.00000 0.00000 0.00000 ; methylguanidinium ion
7763 7764 9426 9425 3 1.58992 4.76976 0.00000 -6.35968 0.00000 0.00000
7763 7764 9426 9427 3 1.58992 4.76976 0.00000 -6.35968 0.00000 0.00000
7763 7764 9426 9428 3 1.58992 4.76976 0.00000 -6.35968 0.00000 0.00000
7764 9426 9425 9424 3 1.78866 3.49154 0.53555 -5.81576 0.00000 0.00000
7764 9426 9425 9429 3 -1.26775 3.02085 1.74473 -3.49782 0.00000 0.00000
7769 7761 7762 7763 3 33.20422 0.00000 -33.20422 0.00000 0.00000 0.00000 ; methylguanidinium ion
7769 7761 7762 7767 3 20.50160 0.00000 -20.50160 0.00000 0.00000 0.00000 ; imides
7770 7752 7753 7754 3 33.20422 0.00000 -33.20422 0.00000 0.00000 0.00000 ; methylguanidinium ion
7770 7752 7753 7760 3 30.28798 -4.81160 -25.47638 0.00000 0.00000 0.00000 ; imides
7772 455 454 453 3 1.58992 4.76976 0.00000 -6.35968 0.00000 0.00000
7772 455 454 456 3 1.58992 4.76976 0.00000 -6.35968 0.00000 0.00000
7772 455 454 457 3 1.58992 4.76976 0.00000 -6.35968 0.00000 0.00000
7777 7778 7787 7788 3 30.28798 -4.81160 -25.47638 0.00000 0.00000 0.00000 ; imides
7777 7797 7798 7799 3 33.20422 0.00000 -33.20422 0.00000 0.00000 0.00000 ; methylguanidinium ion
7777 7797 7798 7802 3 20.50160 0.00000 -20.50160 0.00000 0.00000 0.00000 ; imides
7778 7777 7797 7796 3 30.28798 -4.81160 -25.47638 0.00000 0.00000 0.00000 ; imides
7778 7777 7797 7798 3 33.20422 0.00000 -33.20422 0.00000 0.00000 0.00000 ; methylguanidinium ion
7778 7787 7788 7789 3 33.20422 0.00000 -33.20422 0.00000 0.00000 0.00000 ; methylguanidinium ion
7778 7787 7788 7796 3 30.28798 -4.81160 -25.47638 0.00000 0.00000 0.00000 ; imides
7779 7778 7787 7788 3 33.20422 0.00000 -33.20422 0.00000 0.00000 0.00000 ; methylguanidinium ion
7787 7778 7779 7780 3 33.20422 0.00000 -33.20422 0.00000 0.00000 0.00000 ; methylguanidinium ion
7787 7778 7779 7785 3 20.50160 0.00000 -20.50160 0.00000 0.00000 0.00000 ; imides
7787 7788 7796 7797 3 30.28798 -4.81160 -25.47638 0.00000 0.00000 0.00000 ; imides
7788 7796 7797 7777 3 30.28798 -4.81160 -25.47638 0.00000 0.00000 0.00000 ; imides
7788 7796 7797 7798 3 33.20422 0.00000 -33.20422 0.00000 0.00000 0.00000 ; methylguanidinium ion
7789 7788 7796 7797 3 33.20422 0.00000 -33.20422 0.00000 0.00000 0.00000 ; methylguanidinium ion
7790 7791 11100 11099 3 1.58992 4.76976 0.00000 -6.35968 0.00000 0.00000
7790 7791 11100 11101 3 1.58992 4.76976 0.00000 -6.35968 0.00000 0.00000
7790 7791 11100 11102 3 1.58992 4.76976 0.00000 -6.35968 0.00000 0.00000
7791 11100 11099 11098 3 1.78866 3.49154 0.53555 -5.81576 0.00000 0.00000
7791 11100 11099 11103 3 -1.26775 3.02085 1.74473 -3.49782 0.00000 0.00000
7796 7788 7789 7790 3 33.20422 0.00000 -33.20422 0.00000 0.00000 0.00000 ; methylguanidinium ion
7796 7788 7789 7794 3 20.50160 0.00000 -20.50160 0.00000 0.00000 0.00000 ; imides
7797 7777 7778 7779 3 33.20422 0.00000 -33.20422 0.00000 0.00000 0.00000 ; methylguanidinium ion
7797 7777 7778 7787 3 30.28798 -4.81160 -25.47638 0.00000 0.00000 0.00000 ; imides
7799 281 280 279 3 1.58992 4.76976 0.00000 -6.35968 0.00000 0.00000
7799 281 280 282 3 1.58992 4.76976 0.00000 -6.35968 0.00000 0.00000
7799 281 280 283 3 1.58992 4.76976 0.00000 -6.35968 0.00000 0.00000
7804 7805 7812 7813 3 30.28798 -4.81160 -25.47638 0.00000 0.00000 0.00000 ; imides
7804 7822 7823 7824 3 33.20422 0.00000 -33.20422 0.00000 0.00000 0.00000 ; methylguanidinium ion
7804 7822 7823 7827 3 20.50160 0.00000 -20.50160 0.00000 0.00000 0.00000 ; imides
7805 7804 7822 7821 3 30.28798 -4.81160 -25.47638 0.00000 0.00000 0.00000 ; imides
7805 7804 7822 7823 3 33.20422 0.00000 -33.20422 0.00000 0.00000 0.00000 ; methylguanidinium ion
7805 7812 7813 7814 3 33.20422 0.00000 -33.20422 0.00000 0.00000 0.00000 ; methylguanidinium ion
7805 7812 7813 7821 3 30.28798 -4.81160 -25.47638 0.00000 0.00000 0.00000 ; imides
7806 7805 7812 7813 3 33.20422 0.00000 -33.20422 0.00000 0.00000 0.00000 ; methylguanidinium ion
7807 3745 3744 3743 3 1.58992 4.76976 0.00000 -6.35968 0.00000 0.00000
7807 3745 3744 3746 3 1.58992 4.76976 0.00000 -6.35968 0.00000 0.00000
7807 3745 3744 3747 3 1.58992 4.76976 0.00000 -6.35968 0.00000 0.00000
7812 7805 7806 7807 3 33.20422 0.00000 -33.20422 0.00000 0.00000 0.00000 ; methylguanidinium ion
7812 7805 7806 7810 3 20.50160 0.00000 -20.50160 0.00000 0.00000 0.00000 ; imides
7812 7813 7821 7822 3 30.28798 -4.81160 -25.47638 0.00000 0.00000 0.00000 ; imides
7813 7821 7822 7804 3 30.28798 -4.81160 -25.47638 0.00000 0.00000 0.00000 ; imides
7813 7821 7822 7823 3 33.20422 0.00000 -33.20422 0.00000 0.00000 0.00000 ; methylguanidinium ion
7814 7813 7821 7822 3 33.20422 0.00000 -33.20422 0.00000 0.00000 0.00000 ; methylguanidinium ion
7815 7816 10919 10918 3 1.58992 4.76976 0.00000 -6.35968 0.00000 0.00000
7815 7816 10919 10920 3 1.58992 4.76976 0.00000 -6.35968 0.00000 0.00000
7815 7816 10919 10921 3 1.58992 4.76976 0.00000 -6.35968 0.00000 0.00000
7816 10919 10918 10917 3 1.78866 3.49154 0.53555 -5.81576 0.00000 0.00000
7816 10919 10918 10922 3 -1.26775 3.02085 1.74473 -3.49782 0.00000 0.00000
7821 7813 7814 7815 3 33.20422 0.00000 -33.20422 0.00000 0.00000 0.00000 ; methylguanidinium ion
7821 7813 7814 7819 3 20.50160 0.00000 -20.50160 0.00000 0.00000 0.00000 ; imides
7822 7804 7805 7806 3 33.20422 0.00000 -33.20422 0.00000 0.00000 0.00000 ; methylguanidinium ion
7822 7804 7805 7812 3 30.28798 -4.81160 -25.47638 0.00000 0.00000 0.00000 ; imides
7824 244 243 242 3 1.58992 4.76976 0.00000 -6.35968 0.00000 0.00000
7824 244 243 245 3 1.58992 4.76976 0.00000 -6.35968 0.00000 0.00000
7824 244 243 246 3 1.58992 4.76976 0.00000 -6.35968 0.00000 0.00000
7829 7830 7837 7838 3 30.28798 -4.81160 -25.47638 0.00000 0.00000 0.00000 ; imides
7829 7846 7847 7848 3 33.20422 0.00000 -33.20422 0.00000 0.00000 0.00000 ; methylguanidinium ion
7829 7846 7847 7852 3 20.50160 0.00000 -20.50160 0.00000 0.00000 0.00000 ; imides
7830 7829 7846 7845 3 30.28798 -4.81160 -25.47638 0.00000 0.00000 0.00000 ; imides
7830 7829 7846 7847 3 33.20422 0.00000 -33.20422 0.00000 0.00000 0.00000 ; methylguanidinium ion
7830 7837 7838 7839 3 33.20422 0.00000 -33.20422 0.00000 0.00000 0.00000 ; methylguanidinium ion
7830 7837 7838 7845 3 30.28798 -4.81160 -25.47638 0.00000 0.00000 0.00000 ; imides
7831 7830 7837 7838 3 33.20422 0.00000 -33.20422 0.00000 0.00000 0.00000 ; methylguanidinium ion
7832 3166 3165 3164 3 1.58992 4.76976 0.00000 -6.35968 0.00000 0.00000
7832 3166 3165 3167 3 1.58992 4.76976 0.00000 -6.35968 0.00000 0.00000
7832 3166 3165 3168 3 1.58992 4.76976 0.00000 -6.35968 0.00000 0.00000
7837 7830 7831 7832 3 33.20422 0.00000 -33.20422 0.00000 0.00000 0.00000 ; methylguanidinium ion
7837 7830 7831 7835 3 20.50160 0.00000 -20.50160 0.00000 0.00000 0.00000 ; imides
7837 7838 7845 7846 3 30.28798 -4.81160 -25.47638 0.00000 0.00000 0.00000 ; imides
7838 7845 7846 7829 3 30.28798 -4.81160 -25.47638 0.00000 0.00000 0.00000 ; imides
7838 7845 7846 7847 3 33.20422 0.00000 -33.20422 0.00000 0.00000 0.00000 ; methylguanidinium ion
7839 7838 7845 7846 3 33.20422 0.00000 -33.20422 0.00000 0.00000 0.00000 ; methylguanidinium ion
7840 5987 5986 5985 3 1.58992 4.76976 0.00000 -6.35968 0.00000 0.00000
7840 5987 5986 5988 3 1.58992 4.76976 0.00000 -6.35968 0.00000 0.00000
7840 5987 5986 5989 3 1.58992 4.76976 0.00000 -6.35968 0.00000 0.00000
7845 7838 7839 7840 3 33.20422 0.00000 -33.20422 0.00000 0.00000 0.00000 ; methylguanidinium ion
7845 7838 7839 7843 3 20.50160 0.00000 -20.50160 0.00000 0.00000 0.00000 ; imides
7846 7829 7830 7831 3 33.20422 0.00000 -33.20422 0.00000 0.00000 0.00000 ; methylguanidinium ion
7846 7829 7830 7837 3 30.28798 -4.81160 -25.47638 0.00000 0.00000 0.00000 ; imides
7848 7849 12484 12483 3 1.58992 4.76976 0.00000 -6.35968 0.00000 0.00000
7848 7849 12484 12485 3 1.58992 4.76976 0.00000 -6.35968 0.00000 0.00000
7848 7849 12484 12486 3 1.58992 4.76976 0.00000 -6.35968 0.00000 0.00000
7849 12484 12483 12482 3 1.78866 3.49154 0.53555 -5.81576 0.00000 0.00000
7849 12484 12483 12487 3 -1.26775 3.02085 1.74473 -3.49782 0.00000 0.00000
7854 7855 7863 7864 3 30.28798 -4.81160 -25.47638 0.00000 0.00000 0.00000 ; imides
7854 7872 7873 7874 3 33.20422 0.00000 -33.20422 0.00000 0.00000 0.00000 ; methylguanidinium ion
7854 7872 7873 7877 3 20.50160 0.00000 -20.50160 0.00000 0.00000 0.00000 ; imides
7855 7854 7872 7871 3 30.28798 -4.81160 -25.47638 0.00000 0.00000 0.00000 ; imides
7855 7854 7872 7873 3 33.20422 0.00000 -33.20422 0.00000 0.00000 0.00000 ; methylguanidinium ion
7855 7863 7864 7865 3 33.20422 0.00000 -33.20422 0.00000 0.00000 0.00000 ; methylguanidinium ion
7855 7863 7864 7871 3 30.28798 -4.81160 -25.47638 0.00000 0.00000 0.00000 ; imides
7856 7855 7863 7864 3 33.20422 0.00000 -33.20422 0.00000 0.00000 0.00000 ; methylguanidinium ion
7857 7858 9250 9249 3 1.58992 4.76976 0.00000 -6.35968 0.00000 0.00000
7857 7858 9250 9251 3 1.58992 4.76976 0.00000 -6.35968 0.00000 0.00000
7857 7858 9250 9252 3 1.58992 4.76976 0.00000 -6.35968 0.00000 0.00000
7858 9250 9249 9248 3 1.78866 3.49154 0.53555 -5.81576 0.00000 0.00000
7858 9250 9249 9253 3 -1.26775 3.02085 1.74473 -3.49782 0.00000 0.00000
7863 7855 7856 7857 3 33.20422 0.00000 -33.20422 0.00000 0.00000 0.00000 ; methylguanidinium ion
7863 7855 7856 7861 3 20.50160 0.00000 -20.50160 0.00000 0.00000 0.00000 ; imides
7863 7864 7871 7872 3 30.28798 -4.81160 -25.47638 0.00000 0.00000 0.00000 ; imides
7864 7871 7872 7854 3 30.28798 -4.81160 -25.47638 0.00000 0.00000 0.00000 ; imides
7864 7871 7872 7873 3 33.20422 0.00000 -33.20422 0.00000 0.00000 0.00000 ; methylguanidinium ion
7865 7864 7871 7872 3 33.20422 0.00000 -33.20422 0.00000 0.00000 0.00000 ; methylguanidinium ion
7866 6884 6883 6882 3 1.58992 4.76976 0.00000 -6.35968 0.00000 0.00000
7866 6884 6883 6885 3 1.58992 4.76976 0.00000 -6.35968 0.00000 0.00000
7866 6884 6883 6886 3 1.58992 4.76976 0.00000 -6.35968 0.00000 0.00000
7871 7864 7865 7866 3 33.20422 0.00000 -33.20422 0.00000 0.00000 0.00000 ; methylguanidinium ion
7871 7864 7865 7869 3 20.50160 0.00000 -20.50160 0.00000 0.00000 0.00000 ; imides
7872 7854 7855 7856 3 33.20422 0.00000 -33.20422 0.00000 0.00000 0.00000 ; methylguanidinium ion
7872 7854 7855 7863 3 30.28798 -4.81160 -25.47638 0.00000 0.00000 0.00000 ; imides
7874 2767 2766 2765 3 1.58992 4.76976 0.00000 -6.35968 0.00000 0.00000
7874 2767 2766 2768 3 1.58992 4.76976 0.00000 -6.35968 0.00000 0.00000
7874 2767 2766 2769 3 1.58992 4.76976 0.00000 -6.35968 0.00000 0.00000
7879 7880 7887 7888 3 30.28798 -4.81160 -25.47638 0.00000 0.00000 0.00000 ; imides
7879 7896 7897 7898 3 33.20422 0.00000 -33.20422 0.00000 0.00000 0.00000 ; methylguanidinium ion
7879 7896 7897 7902 3 20.50160 0.00000 -20.50160 0.00000 0.00000 0.00000 ; imides
7880 7879 7896 7895 3 30.28798 -4.81160 -25.47638 0.00000 0.00000 0.00000 ; imides
7880 7879 7896 7897 3 33.20422 0.00000 -33.20422 0.00000 0.00000 0.00000 ; methylguanidinium ion
7880 7887 7888 7889 3 33.20422 0.00000 -33.20422 0.00000 0.00000 0.00000 ; methylguanidinium ion
7880 7887 7888 7895 3 30.28798 -4.81160 -25.47638 0.00000 0.00000 0.00000 ; imides
7881 7880 7887 7888 3 33.20422 0.00000 -33.20422 0.00000 0.00000 0.00000 ; methylguanidinium ion
7882 3922 3921 3920 3 1.58992 4.76976 0.00000 -6.35968 0.00000 0.00000
7882 3922 3921 3923 3 1.58992 4.76976 0.00000 -6.35968 0.00000 0.00000
7882 3922 3921 3924 3 1.58992 4.76976 0.00000 -6.35968 0.00000 0.00000
7887 7880 7881 7882 3 33.20422 0.00000 -33.20422 0.00000 0.00000 0.00000 ; methylguanidinium ion
7887 7880 7881 7885 3 20.50160 0.00000 -20.50160 0.00000 0.00000 0.00000 ; imides
7887 7888 7895 7896 3 30.28798 -4.81160 -25.47638 0.00000 0.00000 0.00000 ; imides
7888 7895 7896 7879 3 30.28798 -4.81160 -25.47638 0.00000 0.00000 0.00000 ; imides
7888 7895 7896 7897 3 33.20422 0.00000 -33.20422 0.00000 0.00000 0.00000 ; methylguanidinium ion
7889 7888 7895 7896 3 33.20422 0.00000 -33.20422 0.00000 0.00000 0.00000 ; methylguanidinium ion
7890 4500 4499 4498 3 1.58992 4.76976 0.00000 -6.35968 0.00000 0.00000
7890 4500 4499 4501 3 1.58992 4.76976 0.00000 -6.35968 0.00000 0.00000
7890 4500 4499 4502 3 1.58992 4.76976 0.00000 -6.35968 0.00000 0.00000
7895 7888 7889 7890 3 33.20422 0.00000 -33.20422 0.00000 0.00000 0.00000 ; methylguanidinium ion
7895 7888 7889 7893 3 20.50160 0.00000 -20.50160 0.00000 0.00000 0.00000 ; imides
7896 7879 7880 7881 3 33.20422 0.00000 -33.20422 0.00000 0.00000 0.00000 ; methylguanidinium ion
7896 7879 7880 7887 3 30.28798 -4.81160 -25.47638 0.00000 0.00000 0.00000 ; imides
7898 7899 8896 8895 3 1.58992 4.76976 0.00000 -6.35968 0.00000 0.00000
7898 7899 8896 8897 3 1.58992 4.76976 0.00000 -6.35968 0.00000 0.00000
7898 7899 8896 8898 3 1.58992 4.76976 0.00000 -6.35968 0.00000 0.00000
7899 8896 8895 8894 3 1.78866 3.49154 0.53555 -5.81576 0.00000 0.00000
7899 8896 8895 8899 3 -1.26775 3.02085 1.74473 -3.49782 0.00000 0.00000
7904 7905 7912 7913 3 30.28798 -4.81160 -25.47638 0.00000 0.00000 0.00000 ; imides
7904 7922 7923 7924 3 33.20422 0.00000 -33.20422 0.00000 0.00000 0.00000 ; methylguanidinium ion
7904 7922 7923 7928 3 20.50160 0.00000 -20.50160 0.00000 0.00000 0.00000 ; imides
7905 7904 7922 7921 3 30.28798 -4.81160 -25.47638 0.00000 0.00000 0.00000 ; imides
7905 7904 7922 7923 3 33.20422 0.00000 -33.20422 0.00000 0.00000 0.00000 ; methylguanidinium ion
7905 7912 7913 7914 3 33.20422 0.00000 -33.20422 0.00000 0.00000 0.00000 ; methylguanidinium ion
7905 7912 7913 7921 3 30.28798 -4.81160 -25.47638 0.00000 0.00000 0.00000 ; imides
7906 7905 7912 7913 3 33.20422 0.00000 -33.20422 0.00000 0.00000 0.00000 ; methylguanidinium ion
7907 5432 5431 5430 3 1.58992 4.76976 0.00000 -6.35968 0.00000 0.00000
7907 5432 5431 5433 3 1.58992 4.76976 0.00000 -6.35968 0.00000 0.00000
7907 5432 5431 5434 3 1.58992 4.76976 0.00000 -6.35968 0.00000 0.00000
7912 7905 7906 7907 3 33.20422 0.00000 -33.20422 0.00000 0.00000 0.00000 ; methylguanidinium ion
7912 7905 7906 7910 3 20.50160 0.00000 -20.50160 0.00000 0.00000 0.00000 ; imides
7912 7913 7921 7922 3 30.28798 -4.81160 -25.47638 0.00000 0.00000 0.00000 ; imides
7913 7921 7922 7904 3 30.28798 -4.81160 -25.47638 0.00000 0.00000 0.00000 ; imides
7913 7921 7922 7923 3 33.20422 0.00000 -33.20422 0.00000 0.00000 0.00000 ; methylguanidinium ion
7914 7913 7921 7922 3 33.20422 0.00000 -33.20422 0.00000 0.00000 0.00000 ; methylguanidinium ion
7915 7916 9754 9753 3 1.58992 4.76976 0.00000 -6.35968 0.00000 0.00000
7915 7916 9754 9755 3 1.58992 4.76976 0.00000 -6.35968 0.00000 0.00000
7915 7916 9754 9756 3 1.58992 4.76976 0.00000 -6.35968 0.00000 0.00000
7916 9754 9753 9752 3 1.78866 3.49154 0.53555 -5.81576 0.00000 0.00000
7916 9754 9753 9757 3 -1.26775 3.02085 1.74473 -3.49782 0.00000 0.00000
7921 7913 7914 7915 3 33.20422 0.00000 -33.20422 0.00000 0.00000 0.00000 ; methylguanidinium ion
7921 7913 7914 7919 3 20.50160 0.00000 -20.50160 0.00000 0.00000 0.00000 ; imides
7922 7904 7905 7906 3 33.20422 0.00000 -33.20422 0.00000 0.00000 0.00000 ; methylguanidinium ion
7922 7904 7905 7912 3 30.28798 -4.81160 -25.47638 0.00000 0.00000 0.00000 ; imides
7924 7925 9410 9409 3 1.58992 4.76976 0.00000 -6.35968 0.00000 0.00000
7924 7925 9410 9411 3 1.58992 4.76976 0.00000 -6.35968 0.00000 0.00000
7924 7925 9410 9412 3 1.58992 4.76976 0.00000 -6.35968 0.00000 0.00000
7925 9410 9409 9408 3 1.78866 3.49154 0.53555 -5.81576 0.00000 0.00000
7925 9410 9409 9413 3 -1.26775 3.02085 1.74473 -3.49782 0.00000 0.00000
7930 7931 7938 7939 3 30.28798 -4.81160 -25.47638 0.00000 0.00000 0.00000 ; imides
7930 7949 7950 7951 3 33.20422 0.00000 -33.20422 0.00000 0.00000 0.00000 ; methylguanidinium ion
7930 7949 7950 7954 3 20.50160 0.00000 -20.50160 0.00000 0.00000 0.00000 ; imides
7931 7930 7949 7948 3 30.28798 -4.81160 -25.47638 0.00000 0.00000 0.00000 ; imides
7931 7930 7949 7950 3 33.20422 0.00000 -33.20422 0.00000 0.00000 0.00000 ; methylguanidinium ion
7931 7938 7939 7940 3 33.20422 0.00000 -33.20422 0.00000 0.00000 0.00000 ; methylguanidinium ion
7931 7938 7939 7948 3 30.28798 -4.81160 -25.47638 0.00000 0.00000 0.00000 ; imides
7932 7931 7938 7939 3 33.20422 0.00000 -33.20422 0.00000 0.00000 0.00000 ; methylguanidinium ion
7933 7177 7176 7175 3 1.58992 4.76976 0.00000 -6.35968 0.00000 0.00000
7933 7177 7176 7178 3 1.58992 4.76976 0.00000 -6.35968 0.00000 0.00000
7933 7177 7176 7179 3 1.58992 4.76976 0.00000 -6.35968 0.00000 0.00000
7938 7931 7932 7933 3 33.20422 0.00000 -33.20422 0.00000 0.00000 0.00000 ; methylguanidinium ion
7938 7931 7932 7936 3 20.50160 0.00000 -20.50160 0.00000 0.00000 0.00000 ; imides
7938 7939 7948 7949 3 30.28798 -4.81160 -25.47638 0.00000 0.00000 0.00000 ; imides
7939 7948 7949 7930 3 30.28798 -4.81160 -25.47638 0.00000 0.00000 0.00000 ; imides
7939 7948 7949 7950 3 33.20422 0.00000 -33.20422 0.00000 0.00000 0.00000 ; methylguanidinium ion
7940 7939 7948 7949 3 33.20422 0.00000 -33.20422 0.00000 0.00000 0.00000 ; methylguanidinium ion
7948 7939 7940 7941 3 33.20422 0.00000 -33.20422 0.00000 0.00000 0.00000 ; methylguanidinium ion
7948 7939 7940 7946 3 20.50160 0.00000 -20.50160 0.00000 0.00000 0.00000 ; imides
7949 7930 7931 7932 3 33.20422 0.00000 -33.20422 0.00000 0.00000 0.00000 ; methylguanidinium ion
7949 7930 7931 7938 3 30.28798 -4.81160 -25.47638 0.00000 0.00000 0.00000 ; imides
7951 3036 3035 3034 3 1.58992 4.76976 0.00000 -6.35968 0.00000 0.00000
7951 3036 3035 3037 3 1.58992 4.76976 0.00000 -6.35968 0.00000 0.00000
7951 3036 3035 3038 3 1.58992 4.76976 0.00000 -6.35968 0.00000 0.00000
7956 7957 7965 7966 3 30.28798 -4.81160 -25.47638 0.00000 0.00000 0.00000 ; imides
7956 7976 7977 7978 3 33.20422 0.00000 -33.20422 0.00000 0.00000 0.00000 ; methylguanidinium ion
7956 7976 7977 7982 3 20.50160 0.00000 -20.50160 0.00000 0.00000 0.00000 ; imides
7957 7956 7976 7975 3 30.28798 -4.81160 -25.47638 0.00000 0.00000 0.00000 ; imides
7957 7956 7976 7977 3 33.20422 0.00000 -33.20422 0.00000 0.00000 0.00000 ; methylguanidinium ion
7957 7965 7966 7967 3 33.20422 0.00000 -33.20422 0.00000 0.00000 0.00000 ; methylguanidinium ion
7957 7965 7966 7975 3 30.28798 -4.81160 -25.47638 0.00000 0.00000 0.00000 ; imides
7958 7957 7965 7966 3 33.20422 0.00000 -33.20422 0.00000 0.00000 0.00000 ; methylguanidinium ion
7959 7960 12338 12337 3 1.58992 4.76976 0.00000 -6.35968 0.00000 0.00000
7959 7960 12338 12339 3 1.58992 4.76976 0.00000 -6.35968 0.00000 0.00000
7959 7960 12338 12340 3 1.58992 4.76976 0.00000 -6.35968 0.00000 0.00000
7960 12338 12337 12336 3 1.78866 3.49154 0.53555 -5.81576 0.00000 0.00000
7960 12338 12337 12341 3 -1.26775 3.02085 1.74473 -3.49782 0.00000 0.00000
7965 7957 7958 7959 3 33.20422 0.00000 -33.20422 0.00000 0.00000 0.00000 ; methylguanidinium ion
7965 7957 7958 7963 3 20.50160 0.00000 -20.50160 0.00000 0.00000 0.00000 ; imides
7965 7966 7975 7976 3 30.28798 -4.81160 -25.47638 0.00000 0.00000 0.00000 ; imides
7966 7975 7976 7956 3 30.28798 -4.81160 -25.47638 0.00000 0.00000 0.00000 ; imides
7966 7975 7976 7977 3 33.20422 0.00000 -33.20422 0.00000 0.00000 0.00000 ; methylguanidinium ion
7967 7966 7975 7976 3 33.20422 0.00000 -33.20422 0.00000 0.00000 0.00000 ; methylguanidinium ion
7975 7966 7967 7968 3 33.20422 0.00000 -33.20422 0.00000 0.00000 0.00000 ; methylguanidinium ion
7975 7966 7967 7973 3 20.50160 0.00000 -20.50160 0.00000 0.00000 0.00000 ; imides
7976 7956 7957 7958 3 33.20422 0.00000 -33.20422 0.00000 0.00000 0.00000 ; methylguanidinium ion
7976 7956 7957 7965 3 30.28798 -4.81160 -25.47638 0.00000 0.00000 0.00000 ; imides
7978 7979 11184 11183 3 1.58992 4.76976 0.00000 -6.35968 0.00000 0.00000
7978 7979 11184 11185 3 1.58992 4.76976 0.00000 -6.35968 0.00000 0.00000
7978 7979 11184 11186 3 1.58992 4.76976 0.00000 -6.35968 0.00000 0.00000
7979 11184 11183 11182 3 1.78866 3.49154 0.53555 -5.81576 0.00000 0.00000
7979 11184 11183 11187 3 -1.26775 3.02085 1.74473 -3.49782 0.00000 0.00000
7984 7985 7994 7995 3 30.28798 -4.81160 -25.47638 0.00000 0.00000 0.00000 ; imides
7984 8004 8005 8006 3 33.20422 0.00000 -33.20422 0.00000 0.00000 0.00000 ; methylguanidinium ion
7984 8004 8005 8009 3 20.50160 0.00000 -20.50160 0.00000 0.00000 0.00000 ; imides
7985 7984 8004 8003 3 30.28798 -4.81160 -25.47638 0.00000 0.00000 0.00000 ; imides
7985 7984 8004 8005 3 33.20422 0.00000 -33.20422 0.00000 0.00000 0.00000 ; methylguanidinium ion
7985 7994 7995 7996 3 33.20422 0.00000 -33.20422 0.00000 0.00000 0.00000 ; methylguanidinium ion
7985 7994 7995 8003 3 30.28798 -4.81160 -25.47638 0.00000 0.00000 0.00000 ; imides
7986 7985 7994 7995 3 33.20422 0.00000 -33.20422 0.00000 0.00000 0.00000 ; methylguanidinium ion
7994 7985 7986 7987 3 33.20422 0.00000 -33.20422 0.00000 0.00000 0.00000 ; methylguanidinium ion
7994 7985 7986 7992 3 20.50160 0.00000 -20.50160 0.00000 0.00000 0.00000 ; imides
7994 7995 8003 8004 3 30.28798 -4.81160 -25.47638 0.00000 0.00000 0.00000 ; imides
7995 8003 8004 7984 3 30.28798 -4.81160 -25.47638 0.00000 0.00000 0.00000 ; imides
7995 8003 8004 8005 3 33.20422 0.00000 -33.20422 0.00000 0.00000 0.00000 ; methylguanidinium ion
7996 7995 8003 8004 3 33.20422 0.00000 -33.20422 0.00000 0.00000 0.00000 ; methylguanidinium ion
7997 7998 8650 8649 3 1.58992 4.76976 0.00000 -6.35968 0.00000 0.00000
7997 7998 8650 8651 3 1.58992 4.76976 0.00000 -6.35968 0.00000 0.00000
7997 7998 8650 8652 3 1.58992 4.76976 0.00000 -6.35968 0.00000 0.00000
7998 8650 8649 8648 3 1.78866 3.49154 0.53555 -5.81576 0.00000 0.00000
7998 8650 8649 8653 3 -1.26775 3.02085 1.74473 -3.49782 0.00000 0.00000
8003 7995 7996 7997 3 33.20422 0.00000 -33.20422 0.00000 0.00000 0.00000 ; methylguanidinium ion
8003 7995 7996 8001 3 20.50160 0.00000 -20.50160 0.00000 0.00000 0.00000 ; imides
8004 7984 7985 7986 3 33.20422 0.00000 -33.20422 0.00000 0.00000 0.00000 ; methylguanidinium ion
8004 7984 7985 7994 3 30.28798 -4.81160 -25.47638 0.00000 0.00000 0.00000 ; imides
8006 4029 4028 4027 3 1.58992 4.76976 0.00000 -6.35968 0.00000 0.00000
8006 4029 4028 4030 3 1.58992 4.76976 0.00000 -6.35968 0.00000 0.00000
8006 4029 4028 4031 3 1.58992 4.76976 0.00000 -6.35968 0.00000 0.00000
8011 8012 8020 8021 3 30.28798 -4.81160 -25.47638 0.00000 0.00000 0.00000 ; imides
8011 8030 8031 8032 3 33.20422 0.00000 -33.20422 0.00000 0.00000 0.00000 ; methylguanidinium ion
8011 8030 8031 8036 3 20.50160 0.00000 -20.50160 0.00000 0.00000 0.00000 ; imides
8012 8011 8030 8029 3 30.28798 -4.81160 -25.47638 0.00000 0.00000 0.00000 ; imides
8012 8011 8030 8031 3 33.20422 0.00000 -33.20422 0.00000 0.00000 0.00000 ; methylguanidinium ion
8012 8020 8021 8022 3 33.20422 0.00000 -33.20422 0.00000 0.00000 0.00000 ; methylguanidinium ion
8012 8020 8021 8029 3 30.28798 -4.81160 -25.47638 0.00000 0.00000 0.00000 ; imides
8013 8012 8020 8021 3 33.20422 0.00000 -33.20422 0.00000 0.00000 0.00000 ; methylguanidinium ion
8014 8015 12322 12321 3 1.58992 4.76976 0.00000 -6.35968 0.00000 0.00000
8014 8015 12322 12323 3 1.58992 4.76976 0.00000 -6.35968 0.00000 0.00000
8014 8015 12322 12324 3 1.58992 4.76976 0.00000 -6.35968 0.00000 0.00000
8015 12322 12321 12320 3 1.78866 3.49154 0.53555 -5.81576 0.00000 0.00000
8015 12322 12321 12325 3 -1.26775 3.02085 1.74473 -3.49782 0.00000 0.00000
8020 8012 8013 8014 3 33.20422 0.00000 -33.20422 0.00000 0.00000 0.00000 ; methylguanidinium ion
8020 8012 8013 8018 3 20.50160 0.00000 -20.50160 0.00000 0.00000 0.00000 ; imides
8020 8021 8029 8030 3 30.28798 -4.81160 -25.47638 0.00000 0.00000 0.00000 ; imides
8021 8029 8030 8011 3 30.28798 -4.81160 -25.47638 0.00000 0.00000 0.00000 ; imides
8021 8029 8030 8031 3 33.20422 0.00000 -33.20422 0.00000 0.00000 0.00000 ; methylguanidinium ion
8022 8021 8029 8030 3 33.20422 0.00000 -33.20422 0.00000 0.00000 0.00000 ; methylguanidinium ion
8023 8024 8144 8143 3 1.58992 4.76976 0.00000 -6.35968 0.00000 0.00000
8023 8024 8144 8145 3 1.58992 4.76976 0.00000 -6.35968 0.00000 0.00000
8023 8024 8144 8146 3 1.58992 4.76976 0.00000 -6.35968 0.00000 0.00000
8024 8144 8143 8142 3 1.78866 3.49154 0.53555 -5.81576 0.00000 0.00000
8024 8144 8143 8147 3 -1.26775 3.02085 1.74473 -3.49782 0.00000 0.00000
8029 8021 8022 8023 3 33.20422 0.00000 -33.20422 0.00000 0.00000 0.00000 ; methylguanidinium ion
8029 8021 8022 8027 3 20.50160 0.00000 -20.50160 0.00000 0.00000 0.00000 ; imides
8030 8011 8012 8013 3 33.20422 0.00000 -33.20422 0.00000 0.00000 0.00000 ; methylguanidinium ion
8030 8011 8012 8020 3 30.28798 -4.81160 -25.47638 0.00000 0.00000 0.00000 ; imides
8032 8033 11312 11311 3 1.58992 4.76976 0.00000 -6.35968 0.00000 0.00000
8032 8033 11312 11313 3 1.58992 4.76976 0.00000 -6.35968 0.00000 0.00000
8032 8033 11312 11314 3 1.58992 4.76976 0.00000 -6.35968 0.00000 0.00000
8033 11312 11311 11310 3 1.78866 3.49154 0.53555 -5.81576 0.00000 0.00000
8033 11312 11311 11315 3 -1.26775 3.02085 1.74473 -3.49782 0.00000 0.00000
8038 8039 8047 8048 3 30.28798 -4.81160 -25.47638 0.00000 0.00000 0.00000 ; imides
8038 8056 8057 8058 3 33.20422 0.00000 -33.20422 0.00000 0.00000 0.00000 ; methylguanidinium ion
8038 8056 8057 8061 3 20.50160 0.00000 -20.50160 0.00000 0.00000 0.00000 ; imides
8039 8038 8056 8055 3 30.28798 -4.81160 -25.47638 0.00000 0.00000 0.00000 ; imides
8039 8038 8056 8057 3 33.20422 0.00000 -33.20422 0.00000 0.00000 0.00000 ; methylguanidinium ion
8039 8047 8048 8049 3 33.20422 0.00000 -33.20422 0.00000 0.00000 0.00000 ; methylguanidinium ion
8039 8047 8048 8055 3 30.28798 -4.81160 -25.47638 0.00000 0.00000 0.00000 ; imides
8040 8039 8047 8048 3 33.20422 0.00000 -33.20422 0.00000 0.00000 0.00000 ; methylguanidinium ion
8041 8042 11568 11567 3 1.58992 4.76976 0.00000 -6.35968 0.00000 0.00000
8041 8042 11568 11569 3 1.58992 4.76976 0.00000 -6.35968 0.00000 0.00000
8041 8042 11568 11570 3 1.58992 4.76976 0.00000 -6.35968 0.00000 0.00000
8042 11568 11567 11566 3 1.78866 3.49154 0.53555 -5.81576 0.00000 0.00000
8042 11568 11567 11571 3 -1.26775 3.02085 1.74473 -3.49782 0.00000 0.00000
8047 8039 8040 8041 3 33.20422 0.00000 -33.20422 0.00000 0.00000 0.00000 ; methylguanidinium ion
8047 8039 8040 8045 3 20.50160 0.00000 -20.50160 0.00000 0.00000 0.00000 ; imides
8047 8048 8055 8056 3 30.28798 -4.81160 -25.47638 0.00000 0.00000 0.00000 ; imides
8048 8055 8056 8038 3 30.28798 -4.81160 -25.47638 0.00000 0.00000 0.00000 ; imides
8048 8055 8056 8057 3 33.20422 0.00000 -33.20422 0.00000 0.00000 0.00000 ; methylguanidinium ion
8049 8048 8055 8056 3 33.20422 0.00000 -33.20422 0.00000 0.00000 0.00000 ; methylguanidinium ion
8050 1451 1450 1449 3 1.58992 4.76976 0.00000 -6.35968 0.00000 0.00000
8050 1451 1450 1452 3 1.58992 4.76976 0.00000 -6.35968 0.00000 0.00000
8050 1451 1450 1453 3 1.58992 4.76976 0.00000 -6.35968 0.00000 0.00000
8055 8048 8049 8050 3 33.20422 0.00000 -33.20422 0.00000 0.00000 0.00000 ; methylguanidinium ion
8055 8048 8049 8053 3 20.50160 0.00000 -20.50160 0.00000 0.00000 0.00000 ; imides
8056 8038 8039 8040 3 33.20422 0.00000 -33.20422 0.00000 0.00000 0.00000 ; methylguanidinium ion
8056 8038 8039 8047 3 30.28798 -4.81160 -25.47638 0.00000 0.00000 0.00000 ; imides
8058 4420 4419 4418 3 1.58992 4.76976 0.00000 -6.35968 0.00000 0.00000
8058 4420 4419 4421 3 1.58992 4.76976 0.00000 -6.35968 0.00000 0.00000
8058 4420 4419 4422 3 1.58992 4.76976 0.00000 -6.35968 0.00000 0.00000
8063 8064 8071 8072 3 30.28798 -4.81160 -25.47638 0.00000 0.00000 0.00000 ; imides
8063 8081 8082 8083 3 33.20422 0.00000 -33.20422 0.00000 0.00000 0.00000 ; methylguanidinium ion
8063 8081 8082 8086 3 20.50160 0.00000 -20.50160 0.00000 0.00000 0.00000 ; imides
8064 8063 8081 8080 3 30.28798 -4.81160 -25.47638 0.00000 0.00000 0.00000 ; imides
8064 8063 8081 8082 3 33.20422 0.00000 -33.20422 0.00000 0.00000 0.00000 ; methylguanidinium ion
8064 8071 8072 8073 3 33.20422 0.00000 -33.20422 0.00000 0.00000 0.00000 ; methylguanidinium ion
8064 8071 8072 8080 3 30.28798 -4.81160 -25.47638 0.00000 0.00000 0.00000 ; imides
8065 8064 8071 8072 3 33.20422 0.00000 -33.20422 0.00000 0.00000 0.00000 ; methylguanidinium ion
8066 2967 2966 2965 3 1.58992 4.76976 0.00000 -6.35968 0.00000 0.00000
8066 2967 2966 2968 3 1.58992 4.76976 0.00000 -6.35968 0.00000 0.00000
8066 2967 2966 2969 3 1.58992 4.76976 0.00000 -6.35968 0.00000 0.00000
8071 8064 8065 8066 3 33.20422 0.00000 -33.20422 0.00000 0.00000 0.00000 ; methylguanidinium ion
8071 8064 8065 8069 3 20.50160 0.00000 -20.50160 0.00000 0.00000 0.00000 ; imides
8071 8072 8080 8081 3 30.28798 -4.81160 -25.47638 0.00000 0.00000 0.00000 ; imides
8072 8080 8081 8063 3 30.28798 -4.81160 -25.47638 0.00000 0.00000 0.00000 ; imides
8072 8080 8081 8082 3 33.20422 0.00000 -33.20422 0.00000 0.00000 0.00000 ; methylguanidinium ion
8073 8072 8080 8081 3 33.20422 0.00000 -33.20422 0.00000 0.00000 0.00000 ; methylguanidinium ion
8074 8075 8974 8973 3 1.58992 4.76976 0.00000 -6.35968 0.00000 0.00000
8074 8075 8974 8975 3 1.58992 4.76976 0.00000 -6.35968 0.00000 0.00000
8074 8075 8974 8976 3 1.58992 4.76976 0.00000 -6.35968 0.00000 0.00000
8075 8974 8973 8972 3 1.78866 3.49154 0.53555 -5.81576 0.00000 0.00000
8075 8974 8973 8977 3 -1.26775 3.02085 1.74473 -3.49782 0.00000 0.00000
8080 8072 8073 8074 3 33.20422 0.00000 -33.20422 0.00000 0.00000 0.00000 ; methylguanidinium ion
8080 8072 8073 8078 3 20.50160 0.00000 -20.50160 0.00000 0.00000 0.00000 ; imides
8081 8063 8064 8065 3 33.20422 0.00000 -33.20422 0.00000 0.00000 0.00000 ; methylguanidinium ion
8081 8063 8064 8071 3 30.28798 -4.81160 -25.47638 0.00000 0.00000 0.00000 ; imides
8083 6092 6091 6090 3 1.58992 4.76976 0.00000 -6.35968 0.00000 0.00000
8083 6092 6091 6093 3 1.58992 4.76976 0.00000 -6.35968 0.00000 0.00000
8083 6092 6091 6094 3 1.58992 4.76976 0.00000 -6.35968 0.00000 0.00000
8088 8089 8096 8097 3 30.28798 -4.81160 -25.47638 0.00000 0.00000 0.00000 ; imides
8088 8106 8107 8108 3 33.20422 0.00000 -33.20422 0.00000 0.00000 0.00000 ; methylguanidinium ion
8088 8106 8107 8112 3 20.50160 0.00000 -20.50160 0.00000 0.00000 0.00000 ; imides
8089 8088 8106 8105 3 30.28798 -4.81160 -25.47638 0.00000 0.00000 0.00000 ; imides
8089 8088 8106 8107 3 33.20422 0.00000 -33.20422 0.00000 0.00000 0.00000 ; methylguanidinium ion
8089 8096 8097 8098 3 33.20422 0.00000 -33.20422 0.00000 0.00000 0.00000 ; methylguanidinium ion
8089 8096 8097 8105 3 30.28798 -4.81160 -25.47638 0.00000 0.00000 0.00000 ; imides
8090 8089 8096 8097 3 33.20422 0.00000 -33.20422 0.00000 0.00000 0.00000 ; methylguanidinium ion
8091 2265 2264 2263 3 1.58992 4.76976 0.00000 -6.35968 0.00000 0.00000
8091 2265 2264 2266 3 1.58992 4.76976 0.00000 -6.35968 0.00000 0.00000
8091 2265 2264 2267 3 1.58992 4.76976 0.00000 -6.35968 0.00000 0.00000
8096 8089 8090 8091 3 33.20422 0.00000 -33.20422 0.00000 0.00000 0.00000 ; methylguanidinium ion
8096 8089 8090 8094 3 20.50160 0.00000 -20.50160 0.00000 0.00000 0.00000 ; imides
8096 8097 8105 8106 3 30.28798 -4.81160 -25.47638 0.00000 0.00000 0.00000 ; imides
8097 8105 8106 8088 3 30.28798 -4.81160 -25.47638 0.00000 0.00000 0.00000 ; imides
8097 8105 8106 8107 3 33.20422 0.00000 -33.20422 0.00000 0.00000 0.00000 ; methylguanidinium ion
8098 8097 8105 8106 3 33.20422 0.00000 -33.20422 0.00000 0.00000 0.00000 ; methylguanidinium ion
8099 8100 9721 9720 3 1.58992 4.76976 0.00000 -6.35968 0.00000 0.00000
8099 8100 9721 9722 3 1.58992 4.76976 0.00000 -6.35968 0.00000 0.00000
8099 8100 9721 9723 3 1.58992 4.76976 0.00000 -6.35968 0.00000 0.00000
8100 9721 9720 9719 3 1.78866 3.49154 0.53555 -5.81576 0.00000 0.00000
8100 9721 9720 9724 3 -1.26775 3.02085 1.74473 -3.49782 0.00000 0.00000
8105 8097 8098 8099 3 33.20422 0.00000 -33.20422 0.00000 0.00000 0.00000 ; methylguanidinium ion
8105 8097 8098 8103 3 20.50160 0.00000 -20.50160 0.00000 0.00000 0.00000 ; imides
8106 8088 8089 8090 3 33.20422 0.00000 -33.20422 0.00000 0.00000 0.00000 ; methylguanidinium ion
8106 8088 8089 8096 3 30.28798 -4.81160 -25.47638 0.00000 0.00000 0.00000 ; imides
8108 8109 10895 10894 3 1.58992 4.76976 0.00000 -6.35968 0.00000 0.00000
8108 8109 10895 10896 3 1.58992 4.76976 0.00000 -6.35968 0.00000 0.00000
8108 8109 10895 10897 3 1.58992 4.76976 0.00000 -6.35968 0.00000 0.00000
8109 10895 10894 10893 3 1.78866 3.49154 0.53555 -5.81576 0.00000 0.00000
8109 10895 10894 10898 3 -1.26775 3.02085 1.74473 -3.49782 0.00000 0.00000
8114 8115 8123 8124 3 30.28798 -4.81160 -25.47638 0.00000 0.00000 0.00000 ; imides
8114 8134 8135 8136 3 33.20422 0.00000 -33.20422 0.00000 0.00000 0.00000 ; methylguanidinium ion
8114 8134 8135 8139 3 20.50160 0.00000 -20.50160 0.00000 0.00000 0.00000 ; imides
8115 8114 8134 8133 3 30.28798 -4.81160 -25.47638 0.00000 0.00000 0.00000 ; imides
8115 8114 8134 8135 3 33.20422 0.00000 -33.20422 0.00000 0.00000 0.00000 ; methylguanidinium ion
8115 8123 8124 8125 3 33.20422 0.00000 -33.20422 0.00000 0.00000 0.00000 ; methylguanidinium ion
8115 8123 8124 8133 3 30.28798 -4.81160 -25.47638 0.00000 0.00000 0.00000 ; imides
8116 8115 8123 8124 3 33.20422 0.00000 -33.20422 0.00000 0.00000 0.00000 ; methylguanidinium ion
8117 8118 11882 11881 3 1.58992 4.76976 0.00000 -6.35968 0.00000 0.00000
8117 8118 11882 11883 3 1.58992 4.76976 0.00000 -6.35968 0.00000 0.00000
8117 8118 11882 11884 3 1.58992 4.76976 0.00000 -6.35968 0.00000 0.00000
8118 11882 11881 11880 3 1.78866 3.49154 0.53555 -5.81576 0.00000 0.00000
8118 11882 11881 11885 3 -1.26775 3.02085 1.74473 -3.49782 0.00000 0.00000
8123 8115 8116 8117 3 33.20422 0.00000 -33.20422 0.00000 0.00000 0.00000 ; methylguanidinium ion
8123 8115 8116 8121 3 20.50160 0.00000 -20.50160 0.00000 0.00000 0.00000 ; imides
8123 8124 8133 8134 3 30.28798 -4.81160 -25.47638 0.00000 0.00000 0.00000 ; imides
8124 8133 8134 8114 3 30.28798 -4.81160 -25.47638 0.00000 0.00000 0.00000 ; imides
8124 8133 8134 8135 3 33.20422 0.00000 -33.20422 0.00000 0.00000 0.00000 ; methylguanidinium ion
8125 8124 8133 8134 3 33.20422 0.00000 -33.20422 0.00000 0.00000 0.00000 ; methylguanidinium ion
8133 8124 8125 8126 3 33.20422 0.00000 -33.20422 0.00000 0.00000 0.00000 ; methylguanidinium ion
8133 8124 8125 8131 3 20.50160 0.00000 -20.50160 0.00000 0.00000 0.00000 ; imides
8134 8114 8115 8116 3 33.20422 0.00000 -33.20422 0.00000 0.00000 0.00000 ; methylguanidinium ion
8134 8114 8115 8123 3 30.28798 -4.81160 -25.47638 0.00000 0.00000 0.00000 ; imides
8136 826 825 824 3 1.58992 4.76976 0.00000 -6.35968 0.00000 0.00000
8136 826 825 827 3 1.58992 4.76976 0.00000 -6.35968 0.00000 0.00000
8136 826 825 828 3 1.58992 4.76976 0.00000 -6.35968 0.00000 0.00000
8141 8142 8149 8150 3 30.28798 -4.81160 -25.47638 0.00000 0.00000 0.00000 ; imides
8141 8159 8160 8161 3 33.20422 0.00000 -33.20422 0.00000 0.00000 0.00000 ; methylguanidinium ion
8141 8159 8160 8164 3 20.50160 0.00000 -20.50160 0.00000 0.00000 0.00000 ; imides
8142 8141 8159 8158 3 30.28798 -4.81160 -25.47638 0.00000 0.00000 0.00000 ; imides
8142 8141 8159 8160 3 33.20422 0.00000 -33.20422 0.00000 0.00000 0.00000 ; methylguanidinium ion
8142 8149 8150 8151 3 33.20422 0.00000 -33.20422 0.00000 0.00000 0.00000 ; methylguanidinium ion
8142 8149 8150 8158 3 30.28798 -4.81160 -25.47638 0.00000 0.00000 0.00000 ; imides
8143 8142 8149 8150 3 33.20422 0.00000 -33.20422 0.00000 0.00000 0.00000 ; methylguanidinium ion
8144 8024 8023 8022 3 1.58992 4.76976 0.00000 -6.35968 0.00000 0.00000
8144 8024 8023 8025 3 1.58992 4.76976 0.00000 -6.35968 0.00000 0.00000
8144 8024 8023 8026 3 1.58992 4.76976 0.00000 -6.35968 0.00000 0.00000
8149 8142 8143 8144 3 33.20422 0.00000 -33.20422 0.00000 0.00000 0.00000 ; methylguanidinium ion
8149 8142 8143 8147 3 20.50160 0.00000 -20.50160 0.00000 0.00000 0.00000 ; imides
8149 8150 8158 8159 3 30.28798 -4.81160 -25.47638 0.00000 0.00000 0.00000 ; imides
8150 8158 8159 8141 3 30.28798 -4.81160 -25.47638 0.00000 0.00000 0.00000 ; imides
8150 8158 8159 8160 3 33.20422 0.00000 -33.20422 0.00000 0.00000 0.00000 ; methylguanidinium ion
8151 8150 8158 8159 3 33.20422 0.00000 -33.20422 0.00000 0.00000 0.00000 ; methylguanidinium ion
8152 8153 8717 8716 3 1.58992 4.76976 0.00000 -6.35968 0.00000 0.00000
8152 8153 8717 8718 3 1.58992 4.76976 0.00000 -6.35968 0.00000 0.00000
8152 8153 8717 8719 3 1.58992 4.76976 0.00000 -6.35968 0.00000 0.00000
8153 8717 8716 8715 3 1.78866 3.49154 0.53555 -5.81576 0.00000 0.00000
8153 8717 8716 8720 3 -1.26775 3.02085 1.74473 -3.49782 0.00000 0.00000
8158 8150 8151 8152 3 33.20422 0.00000 -33.20422 0.00000 0.00000 0.00000 ; methylguanidinium ion
8158 8150 8151 8156 3 20.50160 0.00000 -20.50160 0.00000 0.00000 0.00000 ; imides
8159 8141 8142 8143 3 33.20422 0.00000 -33.20422 0.00000 0.00000 0.00000 ; methylguanidinium ion
8159 8141 8142 8149 3 30.28798 -4.81160 -25.47638 0.00000 0.00000 0.00000 ; imides
8161 509 508 507 3 1.58992 4.76976 0.00000 -6.35968 0.00000 0.00000
8161 509 508 510 3 1.58992 4.76976 0.00000 -6.35968 0.00000 0.00000
8161 509 508 511 3 1.58992 4.76976 0.00000 -6.35968 0.00000 0.00000
8166 8167 8174 8175 3 30.28798 -4.81160 -25.47638 0.00000 0.00000 0.00000 ; imides
8166 8183 8184 8185 3 33.20422 0.00000 -33.20422 0.00000 0.00000 0.00000 ; methylguanidinium ion
8166 8183 8184 8188 3 20.50160 0.00000 -20.50160 0.00000 0.00000 0.00000 ; imides
8167 8166 8183 8182 3 30.28798 -4.81160 -25.47638 0.00000 0.00000 0.00000 ; imides
8167 8166 8183 8184 3 33.20422 0.00000 -33.20422 0.00000 0.00000 0.00000 ; methylguanidinium ion
8167 8174 8175 8176 3 33.20422 0.00000 -33.20422 0.00000 0.00000 0.00000 ; methylguanidinium ion
8167 8174 8175 8182 3 30.28798 -4.81160 -25.47638 0.00000 0.00000 0.00000 ; imides
8168 8167 8174 8175 3 33.20422 0.00000 -33.20422 0.00000 0.00000 0.00000 ; methylguanidinium ion
8169 1550 1549 1548 3 1.58992 4.76976 0.00000 -6.35968 0.00000 0.00000
8169 1550 1549 1551 3 1.58992 4.76976 0.00000 -6.35968 0.00000 0.00000
8169 1550 1549 1552 3 1.58992 4.76976 0.00000 -6.35968 0.00000 0.00000
8174 8167 8168 8169 3 33.20422 0.00000 -33.20422 0.00000 0.00000 0.00000 ; methylguanidinium ion
8174 8167 8168 8172 3 20.50160 0.00000 -20.50160 0.00000 0.00000 0.00000 ; imides
8174 8175 8182 8183 3 30.28798 -4.81160 -25.47638 0.00000 0.00000 0.00000 ; imides
8175 8182 8183 8166 3 30.28798 -4.81160 -25.47638 0.00000 0.00000 0.00000 ; imides
8175 8182 8183 8184 3 33.20422 0.00000 -33.20422 0.00000 0.00000 0.00000 ; methylguanidinium ion
8176 8175 8182 8183 3 33.20422 0.00000 -33.20422 0.00000 0.00000 0.00000 ; methylguanidinium ion
8177 7574 7573 7572 3 1.58992 4.76976 0.00000 -6.35968 0.00000 0.00000
8177 7574 7573 7575 3 1.58992 4.76976 0.00000 -6.35968 0.00000 0.00000
8177 7574 7573 7576 3 1.58992 4.76976 0.00000 -6.35968 0.00000 0.00000
8182 8175 8176 8177 3 33.20422 0.00000 -33.20422 0.00000 0.00000 0.00000 ; methylguanidinium ion
8182 8175 8176 8180 3 20.50160 0.00000 -20.50160 0.00000 0.00000 0.00000 ; imides
8183 8166 8167 8168 3 33.20422 0.00000 -33.20422 0.00000 0.00000 0.00000 ; methylguanidinium ion
8183 8166 8167 8174 3 30.28798 -4.81160 -25.47638 0.00000 0.00000 0.00000 ; imides
8185 3588 3587 3586 3 1.58992 4.76976 0.00000 -6.35968 0.00000 0.00000
8185 3588 3587 3589 3 1.58992 4.76976 0.00000 -6.35968 0.00000 0.00000
8185 3588 3587 3590 3 1.58992 4.76976 0.00000 -6.35968 0.00000 0.00000
8190 8191 8198 8199 3 30.28798 -4.81160 -25.47638 0.00000 0.00000 0.00000 ; imides
8190 8208 8209 8210 3 33.20422 0.00000 -33.20422 0.00000 0.00000 0.00000 ; methylguanidinium ion
8190 8208 8209 8213 3 20.50160 0.00000 -20.50160 0.00000 0.00000 0.00000 ; imides
8191 8190 8208 8207 3 30.28798 -4.81160 -25.47638 0.00000 0.00000 0.00000 ; imides
8191 8190 8208 8209 3 33.20422 0.00000 -33.20422 0.00000 0.00000 0.00000 ; methylguanidinium ion
8191 8198 8199 8200 3 33.20422 0.00000 -33.20422 0.00000 0.00000 0.00000 ; methylguanidinium ion
8191 8198 8199 8207 3 30.28798 -4.81160 -25.47638 0.00000 0.00000 0.00000 ; imides
8192 8191 8198 8199 3 33.20422 0.00000 -33.20422 0.00000 0.00000 0.00000 ; methylguanidinium ion
8193 4324 4323 4322 3 1.58992 4.76976 0.00000 -6.35968 0.00000 0.00000
8193 4324 4323 4325 3 1.58992 4.76976 0.00000 -6.35968 0.00000 0.00000
8193 4324 4323 4326 3 1.58992 4.76976 0.00000 -6.35968 0.00000 0.00000
8198 8191 8192 8193 3 33.20422 0.00000 -33.20422 0.00000 0.00000 0.00000 ; methylguanidinium ion
8198 8191 8192 8196 3 20.50160 0.00000 -20.50160 0.00000 0.00000 0.00000 ; imides
8198 8199 8207 8208 3 30.28798 -4.81160 -25.47638 0.00000 0.00000 0.00000 ; imides
8199 8207 8208 8190 3 30.28798 -4.81160 -25.47638 0.00000 0.00000 0.00000 ; imides
8199 8207 8208 8209 3 33.20422 0.00000 -33.20422 0.00000 0.00000 0.00000 ; methylguanidinium ion
8200 8199 8207 8208 3 33.20422 0.00000 -33.20422 0.00000 0.00000 0.00000 ; methylguanidinium ion
8201 8202 8982 8981 3 1.58992 4.76976 0.00000 -6.35968 0.00000 0.00000
8201 8202 8982 8983 3 1.58992 4.76976 0.00000 -6.35968 0.00000 0.00000
8201 8202 8982 8984 3 1.58992 4.76976 0.00000 -6.35968 0.00000 0.00000
8202 8982 8981 8980 3 1.78866 3.49154 0.53555 -5.81576 0.00000 0.00000
8202 8982 8981 8985 3 -1.26775 3.02085 1.74473 -3.49782 0.00000 0.00000
8207 8199 8200 8201 3 33.20422 0.00000 -33.20422 0.00000 0.00000 0.00000 ; methylguanidinium ion
8207 8199 8200 8205 3 20.50160 0.00000 -20.50160 0.00000 0.00000 0.00000 ; imides
8208 8190 8191 8192 3 33.20422 0.00000 -33.20422 0.00000 0.00000 0.00000 ; methylguanidinium ion
8208 8190 8191 8198 3 30.28798 -4.81160 -25.47638 0.00000 0.00000 0.00000 ; imides
8210 2137 2136 2135 3 1.58992 4.76976 0.00000 -6.35968 0.00000 0.00000
8210 2137 2136 2138 3 1.58992 4.76976 0.00000 -6.35968 0.00000 0.00000
8210 2137 2136 2139 3 1.58992 4.76976 0.00000 -6.35968 0.00000 0.00000
8215 8216 8224 8225 3 30.28798 -4.81160 -25.47638 0.00000 0.00000 0.00000 ; imides
8215 8234 8235 8236 3 33.20422 0.00000 -33.20422 0.00000 0.00000 0.00000 ; methylguanidinium ion
8215 8234 8235 8240 3 20.50160 0.00000 -20.50160 0.00000 0.00000 0.00000 ; imides
8216 8215 8234 8233 3 30.28798 -4.81160 -25.47638 0.00000 0.00000 0.00000 ; imides
8216 8215 8234 8235 3 33.20422 0.00000 -33.20422 0.00000 0.00000 0.00000 ; methylguanidinium ion
8216 8224 8225 8226 3 33.20422 0.00000 -33.20422 0.00000 0.00000 0.00000 ; methylguanidinium ion
8216 8224 8225 8233 3 30.28798 -4.81160 -25.47638 0.00000 0.00000 0.00000 ; imides
8217 8216 8224 8225 3 33.20422 0.00000 -33.20422 0.00000 0.00000 0.00000 ; methylguanidinium ion
8218 8219 9057 9056 3 1.58992 4.76976 0.00000 -6.35968 0.00000 0.00000
8218 8219 9057 9058 3 1.58992 4.76976 0.00000 -6.35968 0.00000 0.00000
8218 8219 9057 9059 3 1.58992 4.76976 0.00000 -6.35968 0.00000 0.00000
8219 9057 9056 9055 3 1.78866 3.49154 0.53555 -5.81576 0.00000 0.00000
8219 9057 9056 9060 3 -1.26775 3.02085 1.74473 -3.49782 0.00000 0.00000
8224 8216 8217 8218 3 33.20422 0.00000 -33.20422 0.00000 0.00000 0.00000 ; methylguanidinium ion
8224 8216 8217 8222 3 20.50160 0.00000 -20.50160 0.00000 0.00000 0.00000 ; imides
8224 8225 8233 8234 3 30.28798 -4.81160 -25.47638 0.00000 0.00000 0.00000 ; imides
8225 8233 8234 8215 3 30.28798 -4.81160 -25.47638 0.00000 0.00000 0.00000 ; imides
8225 8233 8234 8235 3 33.20422 0.00000 -33.20422 0.00000 0.00000 0.00000 ; methylguanidinium ion
8226 8225 8233 8234 3 33.20422 0.00000 -33.20422 0.00000 0.00000 0.00000 ; methylguanidinium ion
8227 8228 12354 12353 3 1.58992 4.76976 0.00000 -6.35968 0.00000 0.00000
8227 8228 12354 12355 3 1.58992 4.76976 0.00000 -6.35968 0.00000 0.00000
8227 8228 12354 12356 3 1.58992 4.76976 0.00000 -6.35968 0.00000 0.00000
8228 12354 12353 12352 3 1.78866 3.49154 0.53555 -5.81576 0.00000 0.00000
8228 12354 12353 12357 3 -1.26775 3.02085 1.74473 -3.49782 0.00000 0.00000
8233 8225 8226 8227 3 33.20422 0.00000 -33.20422 0.00000 0.00000 0.00000 ; methylguanidinium ion
8233 8225 8226 8231 3 20.50160 0.00000 -20.50160 0.00000 0.00000 0.00000 ; imides
8234 8215 8216 8217 3 33.20422 0.00000 -33.20422 0.00000 0.00000 0.00000 ; methylguanidinium ion
8234 8215 8216 8224 3 30.28798 -4.81160 -25.47638 0.00000 0.00000 0.00000 ; imides
8236 8237 8733 8732 3 1.58992 4.76976 0.00000 -6.35968 0.00000 0.00000
8236 8237 8733 8734 3 1.58992 4.76976 0.00000 -6.35968 0.00000 0.00000
8236 8237 8733 8735 3 1.58992 4.76976 0.00000 -6.35968 0.00000 0.00000
8237 8733 8732 8731 3 1.78866 3.49154 0.53555 -5.81576 0.00000 0.00000
8237 8733 8732 8736 3 -1.26775 3.02085 1.74473 -3.49782 0.00000 0.00000
8242 8243 8251 8252 3 30.28798 -4.81160 -25.47638 0.00000 0.00000 0.00000 ; imides
8242 8260 8261 8262 3 33.20422 0.00000 -33.20422 0.00000 0.00000 0.00000 ; methylguanidinium ion
8242 8260 8261 8265 3 20.50160 0.00000 -20.50160 0.00000 0.00000 0.00000 ; imides
8243 8242 8260 8259 3 30.28798 -4.81160 -25.47638 0.00000 0.00000 0.00000 ; imides
8243 8242 8260 8261 3 33.20422 0.00000 -33.20422 0.00000 0.00000 0.00000 ; methylguanidinium ion
8243 8251 8252 8253 3 33.20422 0.00000 -33.20422 0.00000 0.00000 0.00000 ; methylguanidinium ion
8243 8251 8252 8259 3 30.28798 -4.81160 -25.47638 0.00000 0.00000 0.00000 ; imides
8244 8243 8251 8252 3 33.20422 0.00000 -33.20422 0.00000 0.00000 0.00000 ; methylguanidinium ion
8245 8246 12948 12947 3 1.58992 4.76976 0.00000 -6.35968 0.00000 0.00000
8245 8246 12948 12949 3 1.58992 4.76976 0.00000 -6.35968 0.00000 0.00000
8245 8246 12948 12950 3 1.58992 4.76976 0.00000 -6.35968 0.00000 0.00000
8246 12948 12947 12946 3 1.78866 3.49154 0.53555 -5.81576 0.00000 0.00000
8246 12948 12947 12951 3 -1.26775 3.02085 1.74473 -3.49782 0.00000 0.00000
8251 8243 8244 8245 3 33.20422 0.00000 -33.20422 0.00000 0.00000 0.00000 ; methylguanidinium ion
8251 8243 8244 8249 3 20.50160 0.00000 -20.50160 0.00000 0.00000 0.00000 ; imides
8251 8252 8259 8260 3 30.28798 -4.81160 -25.47638 0.00000 0.00000 0.00000 ; imides
8252 8259 8260 8242 3 30.28798 -4.81160 -25.47638 0.00000 0.00000 0.00000 ; imides
8252 8259 8260 8261 3 33.20422 0.00000 -33.20422 0.00000 0.00000 0.00000 ; methylguanidinium ion
8253 8252 8259 8260 3 33.20422 0.00000 -33.20422 0.00000 0.00000 0.00000 ; methylguanidinium ion
8254 2435 2434 2433 3 1.58992 4.76976 0.00000 -6.35968 0.00000 0.00000
8254 2435 2434 2436 3 1.58992 4.76976 0.00000 -6.35968 0.00000 0.00000
8254 2435 2434 2437 3 1.58992 4.76976 0.00000 -6.35968 0.00000 0.00000
8259 8252 8253 8254 3 33.20422 0.00000 -33.20422 0.00000 0.00000 0.00000 ; methylguanidinium ion
8259 8252 8253 8257 3 20.50160 0.00000 -20.50160 0.00000 0.00000 0.00000 ; imides
8260 8242 8243 8244 3 33.20422 0.00000 -33.20422 0.00000 0.00000 0.00000 ; methylguanidinium ion
8260 8242 8243 8251 3 30.28798 -4.81160 -25.47638 0.00000 0.00000 0.00000 ; imides
8262 4817 4816 4815 3 1.58992 4.76976 0.00000 -6.35968 0.00000 0.00000
8262 4817 4816 4818 3 1.58992 4.76976 0.00000 -6.35968 0.00000 0.00000
8262 4817 4816 4819 3 1.58992 4.76976 0.00000 -6.35968 0.00000 0.00000
8267 8268 8276 8277 3 30.28798 -4.81160 -25.47638 0.00000 0.00000 0.00000 ; imides
8267 8286 8287 8288 3 33.20422 0.00000 -33.20422 0.00000 0.00000 0.00000 ; methylguanidinium ion
8267 8286 8287 8291 3 20.50160 0.00000 -20.50160 0.00000 0.00000 0.00000 ; imides
8268 8267 8286 8285 3 30.28798 -4.81160 -25.47638 0.00000 0.00000 0.00000 ; imides
8268 8267 8286 8287 3 33.20422 0.00000 -33.20422 0.00000 0.00000 0.00000 ; methylguanidinium ion
8268 8276 8277 8278 3 33.20422 0.00000 -33.20422 0.00000 0.00000 0.00000 ; methylguanidinium ion
8268 8276 8277 8285 3 30.28798 -4.81160 -25.47638 0.00000 0.00000 0.00000 ; imides
8269 8268 8276 8277 3 33.20422 0.00000 -33.20422 0.00000 0.00000 0.00000 ; methylguanidinium ion
8270 8271 12163 12162 3 1.58992 4.76976 0.00000 -6.35968 0.00000 0.00000
8270 8271 12163 12164 3 1.58992 4.76976 0.00000 -6.35968 0.00000 0.00000
8270 8271 12163 12165 3 1.58992 4.76976 0.00000 -6.35968 0.00000 0.00000
8271 12163 12162 12161 3 1.78866 3.49154 0.53555 -5.81576 0.00000 0.00000
8271 12163 12162 12166 3 -1.26775 3.02085 1.74473 -3.49782 0.00000 0.00000
8276 8268 8269 8270 3 33.20422 0.00000 -33.20422 0.00000 0.00000 0.00000 ; methylguanidinium ion
8276 8268 8269 8274 3 20.50160 0.00000 -20.50160 0.00000 0.00000 0.00000 ; imides
8276 8277 8285 8286 3 30.28798 -4.81160 -25.47638 0.00000 0.00000 0.00000 ; imides
8277 8285 8286 8267 3 30.28798 -4.81160 -25.47638 0.00000 0.00000 0.00000 ; imides
8277 8285 8286 8287 3 33.20422 0.00000 -33.20422 0.00000 0.00000 0.00000 ; methylguanidinium ion
8278 8277 8285 8286 3 33.20422 0.00000 -33.20422 0.00000 0.00000 0.00000 ; methylguanidinium ion
8279 8280 10102 10101 3 1.58992 4.76976 0.00000 -6.35968 0.00000 0.00000
8279 8280 10102 10103 3 1.58992 4.76976 0.00000 -6.35968 0.00000 0.00000
8279 8280 10102 10104 3 1.58992 4.76976 0.00000 -6.35968 0.00000 0.00000
8280 10102 10101 10100 3 1.78866 3.49154 0.53555 -5.81576 0.00000 0.00000
8280 10102 10101 10105 3 -1.26775 3.02085 1.74473 -3.49782 0.00000 0.00000
8285 8277 8278 8279 3 33.20422 0.00000 -33.20422 0.00000 0.00000 0.00000 ; methylguanidinium ion
8285 8277 8278 8283 3 20.50160 0.00000 -20.50160 0.00000 0.00000 0.00000 ; imides
8286 8267 8268 8269 3 33.20422 0.00000 -33.20422 0.00000 0.00000 0.00000 ; methylguanidinium ion
8286 8267 8268 8276 3 30.28798 -4.81160 -25.47638 0.00000 0.00000 0.00000 ; imides
8288 6190 6189 6188 3 1.58992 4.76976 0.00000 -6.35968 0.00000 0.00000
8288 6190 6189 6191 3 1.58992 4.76976 0.00000 -6.35968 0.00000 0.00000
8288 6190 6189 6192 3 1.58992 4.76976 0.00000 -6.35968 0.00000 0.00000
8293 8294 8301 8302 3 30.28798 -4.81160 -25.47638 0.00000 0.00000 0.00000 ; imides
8293 8312 8313 8314 3 33.20422 0.00000 -33.20422 0.00000 0.00000 0.00000 ; methylguanidinium ion
8293 8312 8313 8317 3 20.50160 0.00000 -20.50160 0.00000 0.00000 0.00000 ; imides
8294 8293 8312 8311 3 30.28798 -4.81160 -25.47638 0.00000 0.00000 0.00000 ; imides
8294 8293 8312 8313 3 33.20422 0.00000 -33.20422 0.00000 0.00000 0.00000 ; methylguanidinium ion
8294 8301 8302 8303 3 33.20422 0.00000 -33.20422 0.00000 0.00000 0.00000 ; methylguanidinium ion
8294 8301 8302 8311 3 30.28798 -4.81160 -25.47638 0.00000 0.00000 0.00000 ; imides
8295 8294 8301 8302 3 33.20422 0.00000 -33.20422 0.00000 0.00000 0.00000 ; methylguanidinium ion
8296 1487 1486 1485 3 1.58992 4.76976 0.00000 -6.35968 0.00000 0.00000
8296 1487 1486 1488 3 1.58992 4.76976 0.00000 -6.35968 0.00000 0.00000
8296 1487 1486 1489 3 1.58992 4.76976 0.00000 -6.35968 0.00000 0.00000
8301 8294 8295 8296 3 33.20422 0.00000 -33.20422 0.00000 0.00000 0.00000 ; methylguanidinium ion
8301 8294 8295 8299 3 20.50160 0.00000 -20.50160 0.00000 0.00000 0.00000 ; imides
8301 8302 8311 8312 3 30.28798 -4.81160 -25.47638 0.00000 0.00000 0.00000 ; imides
8302 8311 8312 8293 3 30.28798 -4.81160 -25.47638 0.00000 0.00000 0.00000 ; imides
8302 8311 8312 8313 3 33.20422 0.00000 -33.20422 0.00000 0.00000 0.00000 ; methylguanidinium ion
8303 8302 8311 8312 3 33.20422 0.00000 -33.20422 0.00000 0.00000 0.00000 ; methylguanidinium ion
8311 8302 8303 8304 3 33.20422 0.00000 -33.20422 0.00000 0.00000 0.00000 ; methylguanidinium ion
8311 8302 8303 8309 3 20.50160 0.00000 -20.50160 0.00000 0.00000 0.00000 ; imides
8312 8293 8294 8295 3 33.20422 0.00000 -33.20422 0.00000 0.00000 0.00000 ; methylguanidinium ion
8312 8293 8294 8301 3 30.28798 -4.81160 -25.47638 0.00000 0.00000 0.00000 ; imides
8314 6537 6536 6535 3 1.58992 4.76976 0.00000 -6.35968 0.00000 0.00000
8314 6537 6536 6538 3 1.58992 4.76976 0.00000 -6.35968 0.00000 0.00000
8314 6537 6536 6539 3 1.58992 4.76976 0.00000 -6.35968 0.00000 0.00000
8319 8320 8327 8328 3 30.28798 -4.81160 -25.47638 0.00000 0.00000 0.00000 ; imides
8319 8336 8337 8338 3 33.20422 0.00000 -33.20422 0.00000 0.00000 0.00000 ; methylguanidinium ion
8319 8336 8337 8341 3 20.50160 0.00000 -20.50160 0.00000 0.00000 0.00000 ; imides
8320 8319 8336 8335 3 30.28798 -4.81160 -25.47638 0.00000 0.00000 0.00000 ; imides
8320 8319 8336 8337 3 33.20422 0.00000 -33.20422 0.00000 0.00000 0.00000 ; methylguanidinium ion
8320 8327 8328 8329 3 33.20422 0.00000 -33.20422 0.00000 0.00000 0.00000 ; methylguanidinium ion
8320 8327 8328 8335 3 30.28798 -4.81160 -25.47638 0.00000 0.00000 0.00000 ; imides
8321 8320 8327 8328 3 33.20422 0.00000 -33.20422 0.00000 0.00000 0.00000 ; methylguanidinium ion
8322 2793 2792 2791 3 1.58992 4.76976 0.00000 -6.35968 0.00000 0.00000
8322 2793 2792 2794 3 1.58992 4.76976 0.00000 -6.35968 0.00000 0.00000
8322 2793 2792 2795 3 1.58992 4.76976 0.00000 -6.35968 0.00000 0.00000
8327 8320 8321 8322 3 33.20422 0.00000 -33.20422 0.00000 0.00000 0.00000 ; methylguanidinium ion
8327 8320 8321 8325 3 20.50160 0.00000 -20.50160 0.00000 0.00000 0.00000 ; imides
8327 8328 8335 8336 3 30.28798 -4.81160 -25.47638 0.00000 0.00000 0.00000 ; imides
8328 8335 8336 8319 3 30.28798 -4.81160 -25.47638 0.00000 0.00000 0.00000 ; imides
8328 8335 8336 8337 3 33.20422 0.00000 -33.20422 0.00000 0.00000 0.00000 ; methylguanidinium ion
8329 8328 8335 8336 3 33.20422 0.00000 -33.20422 0.00000 0.00000 0.00000 ; methylguanidinium ion
8330 80 79 78 3 1.58992 4.76976 0.00000 -6.35968 0.00000 0.00000
8330 80 79 81 3 1.58992 4.76976 0.00000 -6.35968 0.00000 0.00000
8330 80 79 82 3 1.58992 4.76976 0.00000 -6.35968 0.00000 0.00000
8335 8328 8329 8330 3 33.20422 0.00000 -33.20422 0.00000 0.00000 0.00000 ; methylguanidinium ion
8335 8328 8329 8333 3 20.50160 0.00000 -20.50160 0.00000 0.00000 0.00000 ; imides
8336 8319 8320 8321 3 33.20422 0.00000 -33.20422 0.00000 0.00000 0.00000 ; methylguanidinium ion
8336 8319 8320 8327 3 30.28798 -4.81160 -25.47638 0.00000 0.00000 0.00000 ; imides
8338 6952 6951 6950 3 1.58992 4.76976 0.00000 -6.35968 0.00000 0.00000
8338 6952 6951 6953 3 1.58992 4.76976 0.00000 -6.35968 0.00000 0.00000
8338 6952 6951 6954 3 1.58992 4.76976 0.00000 -6.35968 0.00000 0.00000
8343 8344 8351 8352 3 30.28798 -4.81160 -25.47638 0.00000 0.00000 0.00000 ; imides
8343 8360 8361 8362 3 33.20422 0.00000 -33.20422 0.00000 0.00000 0.00000 ; methylguanidinium ion
8343 8360 8361 8365 3 20.50160 0.00000 -20.50160 0.00000 0.00000 0.00000 ; imides
8344 8343 8360 8359 3 30.28798 -4.81160 -25.47638 0.00000 0.00000 0.00000 ; imides
8344 8343 8360 8361 3 33.20422 0.00000 -33.20422 0.00000 0.00000 0.00000 ; methylguanidinium ion
8344 8351 8352 8353 3 33.20422 0.00000 -33.20422 0.00000 0.00000 0.00000 ; methylguanidinium ion
8344 8351 8352 8359 3 30.28798 -4.81160 -25.47638 0.00000 0.00000 0.00000 ; imides
8345 8344 8351 8352 3 33.20422 0.00000 -33.20422 0.00000 0.00000 0.00000 ; methylguanidinium ion
8346 6316 6315 6314 3 1.58992 4.76976 0.00000 -6.35968 0.00000 0.00000
8346 6316 6315 6317 3 1.58992 4.76976 0.00000 -6.35968 0.00000 0.00000
8346 6316 6315 6318 3 1.58992 4.76976 0.00000 -6.35968 0.00000 0.00000
8351 8344 8345 8346 3 33.20422 0.00000 -33.20422 0.00000 0.00000 0.00000 ; methylguanidinium ion
8351 8344 8345 8349 3 20.50160 0.00000 -20.50160 0.00000 0.00000 0.00000 ; imides
8351 8352 8359 8360 3 30.28798 -4.81160 -25.47638 0.00000 0.00000 0.00000 ; imides
8352 8359 8360 8343 3 30.28798 -4.81160 -25.47638 0.00000 0.00000 0.00000 ; imides
8352 8359 8360 8361 3 33.20422 0.00000 -33.20422 0.00000 0.00000 0.00000 ; methylguanidinium ion
8353 8352 8359 8360 3 33.20422 0.00000 -33.20422 0.00000 0.00000 0.00000 ; methylguanidinium ion
8354 1433 1432 1431 3 1.58992 4.76976 0.00000 -6.35968 0.00000 0.00000
8354 1433 1432 1434 3 1.58992 4.76976 0.00000 -6.35968 0.00000 0.00000
8354 1433 1432 1435 3 1.58992 4.76976 0.00000 -6.35968 0.00000 0.00000
8359 8352 8353 8354 3 33.20422 0.00000 -33.20422 0.00000 0.00000 0.00000 ; methylguanidinium ion
8359 8352 8353 8357 3 20.50160 0.00000 -20.50160 0.00000 0.00000 0.00000 ; imides
8360 8343 8344 8345 3 33.20422 0.00000 -33.20422 0.00000 0.00000 0.00000 ; methylguanidinium ion
8360 8343 8344 8351 3 30.28798 -4.81160 -25.47638 0.00000 0.00000 0.00000 ; imides
8362 6181 6180 6179 3 1.58992 4.76976 0.00000 -6.35968 0.00000 0.00000
8362 6181 6180 6182 3 1.58992 4.76976 0.00000 -6.35968 0.00000 0.00000
8362 6181 6180 6183 3 1.58992 4.76976 0.00000 -6.35968 0.00000 0.00000
8367 8368 8376 8377 3 30.28798 -4.81160 -25.47638 0.00000 0.00000 0.00000 ; imides
8367 8386 8387 8388 3 33.20422 0.00000 -33.20422 0.00000 0.00000 0.00000 ; methylguanidinium ion
8367 8386 8387 8391 3 20.50160 0.00000 -20.50160 0.00000 0.00000 0.00000 ; imides
8368 8367 8386 8385 3 30.28798 -4.81160 -25.47638 0.00000 0.00000 0.00000 ; imides
8368 8367 8386 8387 3 33.20422 0.00000 -33.20422 0.00000 0.00000 0.00000 ; methylguanidinium ion
8368 8376 8377 8378 3 33.20422 0.00000 -33.20422 0.00000 0.00000 0.00000 ; methylguanidinium ion
8368 8376 8377 8385 3 30.28798 -4.81160 -25.47638 0.00000 0.00000 0.00000 ; imides
8369 8368 8376 8377 3 33.20422 0.00000 -33.20422 0.00000 0.00000 0.00000 ; methylguanidinium ion
8370 8371 10094 10093 3 1.58992 4.76976 0.00000 -6.35968 0.00000 0.00000
8370 8371 10094 10095 3 1.58992 4.76976 0.00000 -6.35968 0.00000 0.00000
8370 8371 10094 10096 3 1.58992 4.76976 0.00000 -6.35968 0.00000 0.00000
8371 10094 10093 10092 3 1.78866 3.49154 0.53555 -5.81576 0.00000 0.00000
8371 10094 10093 10097 3 -1.26775 3.02085 1.74473 -3.49782 0.00000 0.00000
8376 8368 8369 8370 3 33.20422 0.00000 -33.20422 0.00000 0.00000 0.00000 ; methylguanidinium ion
8376 8368 8369 8374 3 20.50160 0.00000 -20.50160 0.00000 0.00000 0.00000 ; imides
8376 8377 8385 8386 3 30.28798 -4.81160 -25.47638 0.00000 0.00000 0.00000 ; imides
8377 8385 8386 8367 3 30.28798 -4.81160 -25.47638 0.00000 0.00000 0.00000 ; imides
8377 8385 8386 8387 3 33.20422 0.00000 -33.20422 0.00000 0.00000 0.00000 ; methylguanidinium ion
8378 8377 8385 8386 3 33.20422 0.00000 -33.20422 0.00000 0.00000 0.00000 ; methylguanidinium ion
8379 8380 12610 12609 3 1.58992 4.76976 0.00000 -6.35968 0.00000 0.00000
8379 8380 12610 12611 3 1.58992 4.76976 0.00000 -6.35968 0.00000 0.00000
8379 8380 12610 12612 3 1.58992 4.76976 0.00000 -6.35968 0.00000 0.00000
8380 12610 12609 12608 3 1.78866 3.49154 0.53555 -5.81576 0.00000 0.00000
8380 12610 12609 12613 3 -1.26775 3.02085 1.74473 -3.49782 0.00000 0.00000
8385 8377 8378 8379 3 33.20422 0.00000 -33.20422 0.00000 0.00000 0.00000 ; methylguanidinium ion
8385 8377 8378 8383 3 20.50160 0.00000 -20.50160 0.00000 0.00000 0.00000 ; imides
8386 8367 8368 8369 3 33.20422 0.00000 -33.20422 0.00000 0.00000 0.00000 ; methylguanidinium ion
8386 8367 8368 8376 3 30.28798 -4.81160 -25.47638 0.00000 0.00000 0.00000 ; imides
8388 3949 3948 3947 3 1.58992 4.76976 0.00000 -6.35968 0.00000 0.00000
8388 3949 3948 3950 3 1.58992 4.76976 0.00000 -6.35968 0.00000 0.00000
8388 3949 3948 3951 3 1.58992 4.76976 0.00000 -6.35968 0.00000 0.00000
8393 8394 8401 8402 3 30.28798 -4.81160 -25.47638 0.00000 0.00000 0.00000 ; imides
8393 8411 8412 8413 3 33.20422 0.00000 -33.20422 0.00000 0.00000 0.00000 ; methylguanidinium ion
8393 8411 8412 8417 3 20.50160 0.00000 -20.50160 0.00000 0.00000 0.00000 ; imides
8394 8393 8411 8410 3 30.28798 -4.81160 -25.47638 0.00000 0.00000 0.00000 ; imides
8394 8393 8411 8412 3 33.20422 0.00000 -33.20422 0.00000 0.00000 0.00000 ; methylguanidinium ion
8394 8401 8402 8403 3 33.20422 0.00000 -33.20422 0.00000 0.00000 0.00000 ; methylguanidinium ion
8394 8401 8402 8410 3 30.28798 -4.81160 -25.47638 0.00000 0.00000 0.00000 ; imides
8395 8394 8401 8402 3 33.20422 0.00000 -33.20422 0.00000 0.00000 0.00000 ; methylguanidinium ion
8396 7730 7729 7728 3 1.58992 4.76976 0.00000 -6.35968 0.00000 0.00000
8396 7730 7729 7731 3 1.58992 4.76976 0.00000 -6.35968 0.00000 0.00000
8396 7730 7729 7732 3 1.58992 4.76976 0.00000 -6.35968 0.00000 0.00000
8401 8394 8395 8396 3 33.20422 0.00000 -33.20422 0.00000 0.00000 0.00000 ; methylguanidinium ion
8401 8394 8395 8399 3 20.50160 0.00000 -20.50160 0.00000 0.00000 0.00000 ; imides
8401 8402 8410 8411 3 30.28798 -4.81160 -25.47638 0.00000 0.00000 0.00000 ; imides
8402 8410 8411 8393 3 30.28798 -4.81160 -25.47638 0.00000 0.00000 0.00000 ; imides
8402 8410 8411 8412 3 33.20422 0.00000 -33.20422 0.00000 0.00000 0.00000 ; methylguanidinium ion
8403 8402 8410 8411 3 33.20422 0.00000 -33.20422 0.00000 0.00000 0.00000 ; methylguanidinium ion
8404 8405 12594 12593 3 1.58992 4.76976 0.00000 -6.35968 0.00000 0.00000
8404 8405 12594 12595 3 1.58992 4.76976 0.00000 -6.35968 0.00000 0.00000
8404 8405 12594 12596 3 1.58992 4.76976 0.00000 -6.35968 0.00000 0.00000
8405 12594 12593 12592 3 1.78866 3.49154 0.53555 -5.81576 0.00000 0.00000
8405 12594 12593 12597 3 -1.26775 3.02085 1.74473 -3.49782 0.00000 0.00000
8410 8402 8403 8404 3 33.20422 0.00000 -33.20422 0.00000 0.00000 0.00000 ; methylguanidinium ion
8410 8402 8403 8408 3 20.50160 0.00000 -20.50160 0.00000 0.00000 0.00000 ; imides
8411 8393 8394 8395 3 33.20422 0.00000 -33.20422 0.00000 0.00000 0.00000 ; methylguanidinium ion
8411 8393 8394 8401 3 30.28798 -4.81160 -25.47638 0.00000 0.00000 0.00000 ; imides
8413 8414 9664 9663 3 1.58992 4.76976 0.00000 -6.35968 0.00000 0.00000
8413 8414 9664 9665 3 1.58992 4.76976 0.00000 -6.35968 0.00000 0.00000
8413 8414 9664 9666 3 1.58992 4.76976 0.00000 -6.35968 0.00000 0.00000
8414 9664 9663 9662 3 1.78866 3.49154 0.53555 -5.81576 0.00000 0.00000
8414 9664 9663 9667 3 -1.26775 3.02085 1.74473 -3.49782 0.00000 0.00000
8419 8420 8428 8429 3 30.28798 -4.81160 -25.47638 0.00000 0.00000 0.00000 ; imides
8419 8437 8438 8439 3 33.20422 0.00000 -33.20422 0.00000 0.00000 0.00000 ; methylguanidinium ion
8419 8437 8438 8442 3 20.50160 0.00000 -20.50160 0.00000 0.00000 0.00000 ; imides
8420 8419 8437 8436 3 30.28798 -4.81160 -25.47638 0.00000 0.00000 0.00000 ; imides
8420 8419 8437 8438 3 33.20422 0.00000 -33.20422 0.00000 0.00000 0.00000 ; methylguanidinium ion
8420 8428 8429 8430 3 33.20422 0.00000 -33.20422 0.00000 0.00000 0.00000 ; methylguanidinium ion
8420 8428 8429 8436 3 30.28798 -4.81160 -25.47638 0.00000 0.00000 0.00000 ; imides
8421 8420 8428 8429 3 33.20422 0.00000 -33.20422 0.00000 0.00000 0.00000 ; methylguanidinium ion
8422 8423 9308 9307 3 1.58992 4.76976 0.00000 -6.35968 0.00000 0.00000
8422 8423 9308 9309 3 1.58992 4.76976 0.00000 -6.35968 0.00000 0.00000
8422 8423 9308 9310 3 1.58992 4.76976 0.00000 -6.35968 0.00000 0.00000
8423 9308 9307 9306 3 1.78866 3.49154 0.53555 -5.81576 0.00000 0.00000
8423 9308 9307 9311 3 -1.26775 3.02085 1.74473 -3.49782 0.00000 0.00000
8428 8420 8421 8422 3 33.20422 0.00000 -33.20422 0.00000 0.00000 0.00000 ; methylguanidinium ion
8428 8420 8421 8426 3 20.50160 0.00000 -20.50160 0.00000 0.00000 0.00000 ; imides
8428 8429 8436 8437 3 30.28798 -4.81160 -25.47638 0.00000 0.00000 0.00000 ; imides
8429 8436 8437 8419 3 30.28798 -4.81160 -25.47638 0.00000 0.00000 0.00000 ; imides
8429 8436 8437 8438 3 33.20422 0.00000 -33.20422 0.00000 0.00000 0.00000 ; methylguanidinium ion
8430 8429 8436 8437 3 33.20422 0.00000 -33.20422 0.00000 0.00000 0.00000 ; methylguanidinium ion
8431 2669 2668 2667 3 1.58992 4.76976 0.00000 -6.35968 0.00000 0.00000
8431 2669 2668 2670 3 1.58992 4.76976 0.00000 -6.35968 0.00000 0.00000
8431 2669 2668 2671 3 1.58992 4.76976 0.00000 -6.35968 0.00000 0.00000
8436 8429 8430 8431 3 33.20422 0.00000 -33.20422 0.00000 0.00000 0.00000 ; methylguanidinium ion
8436 8429 8430 8434 3 20.50160 0.00000 -20.50160 0.00000 0.00000 0.00000 ; imides
8437 8419 8420 8421 3 33.20422 0.00000 -33.20422 0.00000 0.00000 0.00000 ; methylguanidinium ion
8437 8419 8420 8428 3 30.28798 -4.81160 -25.47638 0.00000 0.00000 0.00000 ; imides
8439 5996 5995 5994 3 1.58992 4.76976 0.00000 -6.35968 0.00000 0.00000
8439 5996 5995 5997 3 1.58992 4.76976 0.00000 -6.35968 0.00000 0.00000
8439 5996 5995 5998 3 1.58992 4.76976 0.00000 -6.35968 0.00000 0.00000
8444 8445 8454 8455 3 30.28798 -4.81160 -25.47638 0.00000 0.00000 0.00000 ; imides
8444 8463 8464 8465 3 33.20422 0.00000 -33.20422 0.00000 0.00000 0.00000 ; methylguanidinium ion
8444 8463 8464 8468 3 20.50160 0.00000 -20.50160 0.00000 0.00000 0.00000 ; imides
8445 8444 8463 8462 3 30.28798 -4.81160 -25.47638 0.00000 0.00000 0.00000 ; imides
8445 8444 8463 8464 3 33.20422 0.00000 -33.20422 0.00000 0.00000 0.00000 ; methylguanidinium ion
8445 8454 8455 8456 3 33.20422 0.00000 -33.20422 0.00000 0.00000 0.00000 ; methylguanidinium ion
8445 8454 8455 8462 3 30.28798 -4.81160 -25.47638 0.00000 0.00000 0.00000 ; imides
8446 8445 8454 8455 3 33.20422 0.00000 -33.20422 0.00000 0.00000 0.00000 ; methylguanidinium ion
8454 8445 8446 8447 3 33.20422 0.00000 -33.20422 0.00000 0.00000 0.00000 ; methylguanidinium ion
8454 8445 8446 8452 3 20.50160 0.00000 -20.50160 0.00000 0.00000 0.00000 ; imides
8454 8455 8462 8463 3 30.28798 -4.81160 -25.47638 0.00000 0.00000 0.00000 ; imides
8455 8462 8463 8444 3 30.28798 -4.81160 -25.47638 0.00000 0.00000 0.00000 ; imides
8455 8462 8463 8464 3 33.20422 0.00000 -33.20422 0.00000 0.00000 0.00000 ; methylguanidinium ion
8456 8455 8462 8463 3 33.20422 0.00000 -33.20422 0.00000 0.00000 0.00000 ; methylguanidinium ion
8457 2319 2318 2317 3 1.58992 4.76976 0.00000 -6.35968 0.00000 0.00000
8457 2319 2318 2320 3 1.58992 4.76976 0.00000 -6.35968 0.00000 0.00000
8457 2319 2318 2321 3 1.58992 4.76976 0.00000 -6.35968 0.00000 0.00000
8462 8455 8456 8457 3 33.20422 0.00000 -33.20422 0.00000 0.00000 0.00000 ; methylguanidinium ion
8462 8455 8456 8460 3 20.50160 0.00000 -20.50160 0.00000 0.00000 0.00000 ; imides
8463 8444 8445 8446 3 33.20422 0.00000 -33.20422 0.00000 0.00000 0.00000 ; methylguanidinium ion
8463 8444 8445 8454 3 30.28798 -4.81160 -25.47638 0.00000 0.00000 0.00000 ; imides
8465 3437 3436 3435 3 1.58992 4.76976 0.00000 -6.35968 0.00000 0.00000
8465 3437 3436 3438 3 1.58992 4.76976 0.00000 -6.35968 0.00000 0.00000
8465 3437 3436 3439 3 1.58992 4.76976 0.00000 -6.35968 0.00000 0.00000
8470 8471 8478 8479 3 30.28798 -4.81160 -25.47638 0.00000 0.00000 0.00000 ; imides
8470 8488 8489 8490 3 33.20422 0.00000 -33.20422 0.00000 0.00000 0.00000 ; methylguanidinium ion
8470 8488 8489 8494 3 20.50160 0.00000 -20.50160 0.00000 0.00000 0.00000 ; imides
8471 8470 8488 8487 3 30.28798 -4.81160 -25.47638 0.00000 0.00000 0.00000 ; imides
8471 8470 8488 8489 3 33.20422 0.00000 -33.20422 0.00000 0.00000 0.00000 ; methylguanidinium ion
8471 8478 8479 8480 3 33.20422 0.00000 -33.20422 0.00000 0.00000 0.00000 ; methylguanidinium ion
8471 8478 8479 8487 3 30.28798 -4.81160 -25.47638 0.00000 0.00000 0.00000 ; imides
8472 8471 8478 8479 3 33.20422 0.00000 -33.20422 0.00000 0.00000 0.00000 ; methylguanidinium ion
8473 6695 6694 6693 3 1.58992 4.76976 0.00000 -6.35968 0.00000 0.00000
8473 6695 6694 6696 3 1.58992 4.76976 0.00000 -6.35968 0.00000 0.00000
8473 6695 6694 6697 3 1.58992 4.76976 0.00000 -6.35968 0.00000 0.00000
8478 8471 8472 8473 3 33.20422 0.00000 -33.20422 0.00000 0.00000 0.00000 ; methylguanidinium ion
8478 8471 8472 8476 3 20.50160 0.00000 -20.50160 0.00000 0.00000 0.00000 ; imides
8478 8479 8487 8488 3 30.28798 -4.81160 -25.47638 0.00000 0.00000 0.00000 ; imides
8479 8487 8488 8470 3 30.28798 -4.81160 -25.47638 0.00000 0.00000 0.00000 ; imides
8479 8487 8488 8489 3 33.20422 0.00000 -33.20422 0.00000 0.00000 0.00000 ; methylguanidinium ion
8480 8479 8487 8488 3 33.20422 0.00000 -33.20422 0.00000 0.00000 0.00000 ; methylguanidinium ion
8481 8482 10235 10234 3 1.58992 4.76976 0.00000 -6.35968 0.00000 0.00000
8481 8482 10235 10236 3 1.58992 4.76976 0.00000 -6.35968 0.00000 0.00000
8481 8482 10235 10237 3 1.58992 4.76976 0.00000 -6.35968 0.00000 0.00000
8482 10235 10234 10233 3 1.78866 3.49154 0.53555 -5.81576 0.00000 0.00000
8482 10235 10234 10238 3 -1.26775 3.02085 1.74473 -3.49782 0.00000 0.00000
8487 8479 8480 8481 3 33.20422 0.00000 -33.20422 0.00000 0.00000 0.00000 ; methylguanidinium ion
8487 8479 8480 8485 3 20.50160 0.00000 -20.50160 0.00000 0.00000 0.00000 ; imides
8488 8470 8471 8472 3 33.20422 0.00000 -33.20422 0.00000 0.00000 0.00000 ; methylguanidinium ion
8488 8470 8471 8478 3 30.28798 -4.81160 -25.47638 0.00000 0.00000 0.00000 ; imides
8490 8491 12057 12056 3 1.58992 4.76976 0.00000 -6.35968 0.00000 0.00000
8490 8491 12057 12058 3 1.58992 4.76976 0.00000 -6.35968 0.00000 0.00000
8490 8491 12057 12059 3 1.58992 4.76976 0.00000 -6.35968 0.00000 0.00000
8491 12057 12056 12055 3 1.78866 3.49154 0.53555 -5.81576 0.00000 0.00000
8491 12057 12056 12060 3 -1.26775 3.02085 1.74473 -3.49782 0.00000 0.00000
8496 8497 8504 8505 3 30.28798 -4.81160 -25.47638 0.00000 0.00000 0.00000 ; imides
8496 8513 8514 8515 3 33.20422 0.00000 -33.20422 0.00000 0.00000 0.00000 ; methylguanidinium ion
8496 8513 8514 8518 3 20.50160 0.00000 -20.50160 0.00000 0.00000 0.00000 ; imides
8497 8496 8513 8512 3 30.28798 -4.81160 -25.47638 0.00000 0.00000 0.00000 ; imides
8497 8496 8513 8514 3 33.20422 0.00000 -33.20422 0.00000 0.00000 0.00000 ; methylguanidinium ion
8497 8504 8505 8506 3 33.20422 0.00000 -33.20422 0.00000 0.00000 0.00000 ; methylguanidinium ion
8497 8504 8505 8512 3 30.28798 -4.81160 -25.47638 0.00000 0.00000 0.00000 ; imides
8498 8497 8504 8505 3 33.20422 0.00000 -33.20422 0.00000 0.00000 0.00000 ; methylguanidinium ion
8499 4215 4214 4213 3 1.58992 4.76976 0.00000 -6.35968 0.00000 0.00000
8499 4215 4214 4216 3 1.58992 4.76976 0.00000 -6.35968 0.00000 0.00000
8499 4215 4214 4217 3 1.58992 4.76976 0.00000 -6.35968 0.00000 0.00000
8504 8497 8498 8499 3 33.20422 0.00000 -33.20422 0.00000 0.00000 0.00000 ; methylguanidinium ion
8504 8497 8498 8502 3 20.50160 0.00000 -20.50160 0.00000 0.00000 0.00000 ; imides
8504 8505 8512 8513 3 30.28798 -4.81160 -25.47638 0.00000 0.00000 0.00000 ; imides
8505 8512 8513 8496 3 30.28798 -4.81160 -25.47638 0.00000 0.00000 0.00000 ; imides
8505 8512 8513 8514 3 33.20422 0.00000 -33.20422 0.00000 0.00000 0.00000 ; methylguanidinium ion
8506 8505 8512 8513 3 33.20422 0.00000 -33.20422 0.00000 0.00000 0.00000 ; methylguanidinium ion
8507 2802 2801 2800 3 1.58992 4.76976 0.00000 -6.35968 0.00000 0.00000
8507 2802 2801 2803 3 1.58992 4.76976 0.00000 -6.35968 0.00000 0.00000
8507 2802 2801 2804 3 1.58992 4.76976 0.00000 -6.35968 0.00000 0.00000
8512 8505 8506 8507 3 33.20422 0.00000 -33.20422 0.00000 0.00000 0.00000 ; methylguanidinium ion
8512 8505 8506 8510 3 20.50160 0.00000 -20.50160 0.00000 0.00000 0.00000 ; imides
8513 8496 8497 8498 3 33.20422 0.00000 -33.20422 0.00000 0.00000 0.00000 ; methylguanidinium ion
8513 8496 8497 8504 3 30.28798 -4.81160 -25.47638 0.00000 0.00000 0.00000 ; imides
8515 7316 7315 7314 3 1.58992 4.76976 0.00000 -6.35968 0.00000 0.00000
8515 7316 7315 7317 3 1.58992 4.76976 0.00000 -6.35968 0.00000 0.00000
8515 7316 7315 7318 3 1.58992 4.76976 0.00000 -6.35968 0.00000 0.00000
8520 8521 8528 8529 3 30.28798 -4.81160 -25.47638 0.00000 0.00000 0.00000 ; imides
8520 8538 8539 8540 3 33.20422 0.00000 -33.20422 0.00000 0.00000 0.00000 ; methylguanidinium ion
8520 8538 8539 8544 3 20.50160 0.00000 -20.50160 0.00000 0.00000 0.00000 ; imides
8521 8520 8538 8537 3 30.28798 -4.81160 -25.47638 0.00000 0.00000 0.00000 ; imides
8521 8520 8538 8539 3 33.20422 0.00000 -33.20422 0.00000 0.00000 0.00000 ; methylguanidinium ion
8521 8528 8529 8530 3 33.20422 0.00000 -33.20422 0.00000 0.00000 0.00000 ; methylguanidinium ion
8521 8528 8529 8537 3 30.28798 -4.81160 -25.47638 0.00000 0.00000 0.00000 ; imides
8522 8521 8528 8529 3 33.20422 0.00000 -33.20422 0.00000 0.00000 0.00000 ; methylguanidinium ion
8523 1933 1932 1931 3 1.58992 4.76976 0.00000 -6.35968 0.00000 0.00000
8523 1933 1932 1934 3 1.58992 4.76976 0.00000 -6.35968 0.00000 0.00000
8523 1933 1932 1935 3 1.58992 4.76976 0.00000 -6.35968 0.00000 0.00000
8528 8521 8522 8523 3 33.20422 0.00000 -33.20422 0.00000 0.00000 0.00000 ; methylguanidinium ion
8528 8521 8522 8526 3 20.50160 0.00000 -20.50160 0.00000 0.00000 0.00000 ; imides
8528 8529 8537 8538 3 30.28798 -4.81160 -25.47638 0.00000 0.00000 0.00000 ; imides
8529 8537 8538 8520 3 30.28798 -4.81160 -25.47638 0.00000 0.00000 0.00000 ; imides
8529 8537 8538 8539 3 33.20422 0.00000 -33.20422 0.00000 0.00000 0.00000 ; methylguanidinium ion
8530 8529 8537 8538 3 33.20422 0.00000 -33.20422 0.00000 0.00000 0.00000 ; methylguanidinium ion
8531 8532 10711 10710 3 1.58992 4.76976 0.00000 -6.35968 0.00000 0.00000
8531 8532 10711 10712 3 1.58992 4.76976 0.00000 -6.35968 0.00000 0.00000
8531 8532 10711 10713 3 1.58992 4.76976 0.00000 -6.35968 0.00000 0.00000
8532 10711 10710 10709 3 1.78866 3.49154 0.53555 -5.81576 0.00000 0.00000
8532 10711 10710 10714 3 -1.26775 3.02085 1.74473 -3.49782 0.00000 0.00000
8537 8529 8530 8531 3 33.20422 0.00000 -33.20422 0.00000 0.00000 0.00000 ; methylguanidinium ion
8537 8529 8530 8535 3 20.50160 0.00000 -20.50160 0.00000 0.00000 0.00000 ; imides
8538 8520 8521 8522 3 33.20422 0.00000 -33.20422 0.00000 0.00000 0.00000 ; methylguanidinium ion
8538 8520 8521 8528 3 30.28798 -4.81160 -25.47638 0.00000 0.00000 0.00000 ; imides
8540 8541 11108 11107 3 1.58992 4.76976 0.00000 -6.35968 0.00000 0.00000
8540 8541 11108 11109 3 1.58992 4.76976 0.00000 -6.35968 0.00000 0.00000
8540 8541 11108 11110 3 1.58992 4.76976 0.00000 -6.35968 0.00000 0.00000
8541 11108 11107 11106 3 1.78866 3.49154 0.53555 -5.81576 0.00000 0.00000
8541 11108 11107 11111 3 -1.26775 3.02085 1.74473 -3.49782 0.00000 0.00000
8546 8547 8554 8555 3 30.28798 -4.81160 -25.47638 0.00000 0.00000 0.00000 ; imides
8546 8564 8565 8566 3 33.20422 0.00000 -33.20422 0.00000 0.00000 0.00000 ; methylguanidinium ion
8546 8564 8565 8569 3 20.50160 0.00000 -20.50160 0.00000 0.00000 0.00000 ; imides
8547 8546 8564 8563 3 30.28798 -4.81160 -25.47638 0.00000 0.00000 0.00000 ; imides
8547 8546 8564 8565 3 33.20422 0.00000 -33.20422 0.00000 0.00000 0.00000 ; methylguanidinium ion
8547 8554 8555 8556 3 33.20422 0.00000 -33.20422 0.00000 0.00000 0.00000 ; methylguanidinium ion
8547 8554 8555 8563 3 30.28798 -4.81160 -25.47638 0.00000 0.00000 0.00000 ; imides
8548 8547 8554 8555 3 33.20422 0.00000 -33.20422 0.00000 0.00000 0.00000 ; methylguanidinium ion
8549 5206 5205 5204 3 1.58992 4.76976 0.00000 -6.35968 0.00000 0.00000
8549 5206 5205 5207 3 1.58992 4.76976 0.00000 -6.35968 0.00000 0.00000
8549 5206 5205 5208 3 1.58992 4.76976 0.00000 -6.35968 0.00000 0.00000
8554 8547 8548 8549 3 33.20422 0.00000 -33.20422 0.00000 0.00000 0.00000 ; methylguanidinium ion
8554 8547 8548 8552 3 20.50160 0.00000 -20.50160 0.00000 0.00000 0.00000 ; imides
8554 8555 8563 8564 3 30.28798 -4.81160 -25.47638 0.00000 0.00000 0.00000 ; imides
8555 8563 8564 8546 3 30.28798 -4.81160 -25.47638 0.00000 0.00000 0.00000 ; imides
8555 8563 8564 8565 3 33.20422 0.00000 -33.20422 0.00000 0.00000 0.00000 ; methylguanidinium ion
8556 8555 8563 8564 3 33.20422 0.00000 -33.20422 0.00000 0.00000 0.00000 ; methylguanidinium ion
8557 8558 12684 12683 3 1.58992 4.76976 0.00000 -6.35968 0.00000 0.00000
8557 8558 12684 12685 3 1.58992 4.76976 0.00000 -6.35968 0.00000 0.00000
8557 8558 12684 12686 3 1.58992 4.76976 0.00000 -6.35968 0.00000 0.00000
8558 12684 12683 12682 3 1.78866 3.49154 0.53555 -5.81576 0.00000 0.00000
8558 12684 12683 12687 3 -1.26775 3.02085 1.74473 -3.49782 0.00000 0.00000
8563 8555 8556 8557 3 33.20422 0.00000 -33.20422 0.00000 0.00000 0.00000 ; methylguanidinium ion
8563 8555 8556 8561 3 20.50160 0.00000 -20.50160 0.00000 0.00000 0.00000 ; imides
8564 8546 8547 8548 3 33.20422 0.00000 -33.20422 0.00000 0.00000 0.00000 ; methylguanidinium ion
8564 8546 8547 8554 3 30.28798 -4.81160 -25.47638 0.00000 0.00000 0.00000 ; imides
8566 1163 1162 1161 3 1.58992 4.76976 0.00000 -6.35968 0.00000 0.00000
8566 1163 1162 1164 3 1.58992 4.76976 0.00000 -6.35968 0.00000 0.00000
8566 1163 1162 1165 3 1.58992 4.76976 0.00000 -6.35968 0.00000 0.00000
8571 8572 8580 8581 3 30.28798 -4.81160 -25.47638 0.00000 0.00000 0.00000 ; imides
8571 8589 8590 8591 3 33.20422 0.00000 -33.20422 0.00000 0.00000 0.00000 ; methylguanidinium ion
8571 8589 8590 8594 3 20.50160 0.00000 -20.50160 0.00000 0.00000 0.00000 ; imides
8572 8571 8589 8588 3 30.28798 -4.81160 -25.47638 0.00000 0.00000 0.00000 ; imides
8572 8571 8589 8590 3 33.20422 0.00000 -33.20422 0.00000 0.00000 0.00000 ; methylguanidinium ion
8572 8580 8581 8582 3 33.20422 0.00000 -33.20422 0.00000 0.00000 0.00000 ; methylguanidinium ion
8572 8580 8581 8588 3 30.28798 -4.81160 -25.47638 0.00000 0.00000 0.00000 ; imides
8573 8572 8580 8581 3 33.20422 0.00000 -33.20422 0.00000 0.00000 0.00000 ; methylguanidinium ion
8574 8575 10962 10961 3 1.58992 4.76976 0.00000 -6.35968 0.00000 0.00000
8574 8575 10962 10963 3 1.58992 4.76976 0.00000 -6.35968 0.00000 0.00000
8574 8575 10962 10964 3 1.58992 4.76976 0.00000 -6.35968 0.00000 0.00000
8575 10962 10961 10960 3 1.78866 3.49154 0.53555 -5.81576 0.00000 0.00000
8575 10962 10961 10965 3 -1.26775 3.02085 1.74473 -3.49782 0.00000 0.00000
8580 8572 8573 8574 3 33.20422 0.00000 -33.20422 0.00000 0.00000 0.00000 ; methylguanidinium ion
8580 8572 8573 8578 3 20.50160 0.00000 -20.50160 0.00000 0.00000 0.00000 ; imides
8580 8581 8588 8589 3 30.28798 -4.81160 -25.47638 0.00000 0.00000 0.00000 ; imides
8581 8588 8589 8571 3 30.28798 -4.81160 -25.47638 0.00000 0.00000 0.00000 ; imides
8581 8588 8589 8590 3 33.20422 0.00000 -33.20422 0.00000 0.00000 0.00000 ; methylguanidinium ion
8582 8581 8588 8589 3 33.20422 0.00000 -33.20422 0.00000 0.00000 0.00000 ; methylguanidinium ion
8583 6926 6925 6924 3 1.58992 4.76976 0.00000 -6.35968 0.00000 0.00000
8583 6926 6925 6927 3 1.58992 4.76976 0.00000 -6.35968 0.00000 0.00000
8583 6926 6925 6928 3 1.58992 4.76976 0.00000 -6.35968 0.00000 0.00000
8588 8581 8582 8583 3 33.20422 0.00000 -33.20422 0.00000 0.00000 0.00000 ; methylguanidinium ion
8588 8581 8582 8586 3 20.50160 0.00000 -20.50160 0.00000 0.00000 0.00000 ; imides
8589 8571 8572 8573 3 33.20422 0.00000 -33.20422 0.00000 0.00000 0.00000 ; methylguanidinium ion
8589 8571 8572 8580 3 30.28798 -4.81160 -25.47638 0.00000 0.00000 0.00000 ; imides
8591 4727 4726 4725 3 1.58992 4.76976 0.00000 -6.35968 0.00000 0.00000
8591 4727 4726 4728 3 1.58992 4.76976 0.00000 -6.35968 0.00000 0.00000
8591 4727 4726 4729 3 1.58992 4.76976 0.00000 -6.35968 0.00000 0.00000
8596 8597 8604 8605 3 30.28798 -4.81160 -25.47638 0.00000 0.00000 0.00000 ; imides
8596 8614 8615 8616 3 33.20422 0.00000 -33.20422 0.00000 0.00000 0.00000 ; methylguanidinium ion
8596 8614 8615 8620 3 20.50160 0.00000 -20.50160 0.00000 0.00000 0.00000 ; imides
8597 8596 8614 8613 3 30.28798 -4.81160 -25.47638 0.00000 0.00000 0.00000 ; imides
8597 8596 8614 8615 3 33.20422 0.00000 -33.20422 0.00000 0.00000 0.00000 ; methylguanidinium ion
8597 8604 8605 8606 3 33.20422 0.00000 -33.20422 0.00000 0.00000 0.00000 ; methylguanidinium ion
8597 8604 8605 8613 3 30.28798 -4.81160 -25.47638 0.00000 0.00000 0.00000 ; imides
8598 8597 8604 8605 3 33.20422 0.00000 -33.20422 0.00000 0.00000 0.00000 ; methylguanidinium ion
8599 4438 4437 4436 3 1.58992 4.76976 0.00000 -6.35968 0.00000 0.00000
8599 4438 4437 4439 3 1.58992 4.76976 0.00000 -6.35968 0.00000 0.00000
8599 4438 4437 4440 3 1.58992 4.76976 0.00000 -6.35968 0.00000 0.00000
8604 8597 8598 8599 3 33.20422 0.00000 -33.20422 0.00000 0.00000 0.00000 ; methylguanidinium ion
8604 8597 8598 8602 3 20.50160 0.00000 -20.50160 0.00000 0.00000 0.00000 ; imides
8604 8605 8613 8614 3 30.28798 -4.81160 -25.47638 0.00000 0.00000 0.00000 ; imides
8605 8613 8614 8596 3 30.28798 -4.81160 -25.47638 0.00000 0.00000 0.00000 ; imides
8605 8613 8614 8615 3 33.20422 0.00000 -33.20422 0.00000 0.00000 0.00000 ; methylguanidinium ion
8606 8605 8613 8614 3 33.20422 0.00000 -33.20422 0.00000 0.00000 0.00000 ; methylguanidinium ion
8607 8608 10516 10515 3 1.58992 4.76976 0.00000 -6.35968 0.00000 0.00000
8607 8608 10516 10517 3 1.58992 4.76976 0.00000 -6.35968 0.00000 0.00000
8607 8608 10516 10518 3 1.58992 4.76976 0.00000 -6.35968 0.00000 0.00000
8608 10516 10515 10514 3 1.78866 3.49154 0.53555 -5.81576 0.00000 0.00000
8608 10516 10515 10519 3 -1.26775 3.02085 1.74473 -3.49782 0.00000 0.00000
8613 8605 8606 8607 3 33.20422 0.00000 -33.20422 0.00000 0.00000 0.00000 ; methylguanidinium ion
8613 8605 8606 8611 3 20.50160 0.00000 -20.50160 0.00000 0.00000 0.00000 ; imides
8614 8596 8597 8598 3 33.20422 0.00000 -33.20422 0.00000 0.00000 0.00000 ; methylguanidinium ion
8614 8596 8597 8604 3 30.28798 -4.81160 -25.47638 0.00000 0.00000 0.00000 ; imides
8616 8617 9614 9613 3 1.58992 4.76976 0.00000 -6.35968 0.00000 0.00000
8616 8617 9614 9615 3 1.58992 4.76976 0.00000 -6.35968 0.00000 0.00000
8616 8617 9614 9616 3 1.58992 4.76976 0.00000 -6.35968 0.00000 0.00000
8617 9614 9613 9612 3 1.78866 3.49154 0.53555 -5.81576 0.00000 0.00000
8617 9614 9613 9617 3 -1.26775 3.02085 1.74473 -3.49782 0.00000 0.00000
8622 8623 8631 8632 3 30.28798 -4.81160 -25.47638 0.00000 0.00000 0.00000 ; imides
8622 8640 8641 8642 3 33.20422 0.00000 -33.20422 0.00000 0.00000 0.00000 ; methylguanidinium ion
8622 8640 8641 8645 3 20.50160 0.00000 -20.50160 0.00000 0.00000 0.00000 ; imides
8623 8622 8640 8639 3 30.28798 -4.81160 -25.47638 0.00000 0.00000 0.00000 ; imides
8623 8622 8640 8641 3 33.20422 0.00000 -33.20422 0.00000 0.00000 0.00000 ; methylguanidinium ion
8623 8631 8632 8633 3 33.20422 0.00000 -33.20422 0.00000 0.00000 0.00000 ; methylguanidinium ion
8623 8631 8632 8639 3 30.28798 -4.81160 -25.47638 0.00000 0.00000 0.00000 ; imides
8624 8623 8631 8632 3 33.20422 0.00000 -33.20422 0.00000 0.00000 0.00000 ; methylguanidinium ion
8625 8626 8904 8903 3 1.58992 4.76976 0.00000 -6.35968 0.00000 0.00000
8625 8626 8904 8905 3 1.58992 4.76976 0.00000 -6.35968 0.00000 0.00000
8625 8626 8904 8906 3 1.58992 4.76976 0.00000 -6.35968 0.00000 0.00000
8626 8904 8903 8902 3 1.78866 3.49154 0.53555 -5.81576 0.00000 0.00000
8626 8904 8903 8907 3 -1.26775 3.02085 1.74473 -3.49782 0.00000 0.00000
8631 8623 8624 8625 3 33.20422 0.00000 -33.20422 0.00000 0.00000 0.00000 ; methylguanidinium ion
8631 8623 8624 8629 3 20.50160 0.00000 -20.50160 0.00000 0.00000 0.00000 ; imides
8631 8632 8639 8640 3 30.28798 -4.81160 -25.47638 0.00000 0.00000 0.00000 ; imides
8632 8639 8640 8622 3 30.28798 -4.81160 -25.47638 0.00000 0.00000 0.00000 ; imides
8632 8639 8640 8641 3 33.20422 0.00000 -33.20422 0.00000 0.00000 0.00000 ; methylguanidinium ion
8633 8632 8639 8640 3 33.20422 0.00000 -33.20422 0.00000 0.00000 0.00000 ; methylguanidinium ion
8634 1136 1135 1134 3 1.58992 4.76976 0.00000 -6.35968 0.00000 0.00000
8634 1136 1135 1137 3 1.58992 4.76976 0.00000 -6.35968 0.00000 0.00000
8634 1136 1135 1138 3 1.58992 4.76976 0.00000 -6.35968 0.00000 0.00000
8639 8632 8633 8634 3 33.20422 0.00000 -33.20422 0.00000 0.00000 0.00000 ; methylguanidinium ion
8639 8632 8633 8637 3 20.50160 0.00000 -20.50160 0.00000 0.00000 0.00000 ; imides
8640 8622 8623 8624 3 33.20422 0.00000 -33.20422 0.00000 0.00000 0.00000 ; methylguanidinium ion
8640 8622 8623 8631 3 30.28798 -4.81160 -25.47638 0.00000 0.00000 0.00000 ; imides
8642 7496 7495 7494 3 1.58992 4.76976 0.00000 -6.35968 0.00000 0.00000
8642 7496 7495 7497 3 1.58992 4.76976 0.00000 -6.35968 0.00000 0.00000
8642 7496 7495 7498 3 1.58992 4.76976 0.00000 -6.35968 0.00000 0.00000
8647 8648 8655 8656 3 30.28798 -4.81160 -25.47638 0.00000 0.00000 0.00000 ; imides
8647 8664 8665 8666 3 33.20422 0.00000 -33.20422 0.00000 0.00000 0.00000 ; methylguanidinium ion
8647 8664 8665 8669 3 20.50160 0.00000 -20.50160 0.00000 0.00000 0.00000 ; imides
8648 8647 8664 8663 3 30.28798 -4.81160 -25.47638 0.00000 0.00000 0.00000 ; imides
8648 8647 8664 8665 3 33.20422 0.00000 -33.20422 0.00000 0.00000 0.00000 ; methylguanidinium ion
8648 8655 8656 8657 3 33.20422 0.00000 -33.20422 0.00000 0.00000 0.00000 ; methylguanidinium ion
8648 8655 8656 8663 3 30.28798 -4.81160 -25.47638 0.00000 0.00000 0.00000 ; imides
8649 8648 8655 8656 3 33.20422 0.00000 -33.20422 0.00000 0.00000 0.00000 ; methylguanidinium ion
8650 7998 7997 7996 3 1.58992 4.76976 0.00000 -6.35968 0.00000 0.00000
8650 7998 7997 7999 3 1.58992 4.76976 0.00000 -6.35968 0.00000 0.00000
8650 7998 7997 8000 3 1.58992 4.76976 0.00000 -6.35968 0.00000 0.00000
8655 8648 8649 8650 3 33.20422 0.00000 -33.20422 0.00000 0.00000 0.00000 ; methylguanidinium ion
8655 8648 8649 8653 3 20.50160 0.00000 -20.50160 0.00000 0.00000 0.00000 ; imides
8655 8656 8663 8664 3 30.28798 -4.81160 -25.47638 0.00000 0.00000 0.00000 ; imides
8656 8663 8664 8647 3 30.28798 -4.81160 -25.47638 0.00000 0.00000 0.00000 ; imides
8656 8663 8664 8665 3 33.20422 0.00000 -33.20422 0.00000 0.00000 0.00000 ; methylguanidinium ion
8657 8656 8663 8664 3 33.20422 0.00000 -33.20422 0.00000 0.00000 0.00000 ; methylguanidinium ion
8658 6875 6874 6873 3 1.58992 4.76976 0.00000 -6.35968 0.00000 0.00000
8658 6875 6874 6876 3 1.58992 4.76976 0.00000 -6.35968 0.00000 0.00000
8658 6875 6874 6877 3 1.58992 4.76976 0.00000 -6.35968 0.00000 0.00000
8663 8656 8657 8658 3 33.20422 0.00000 -33.20422 0.00000 0.00000 0.00000 ; methylguanidinium ion
8663 8656 8657 8661 3 20.50160 0.00000 -20.50160 0.00000 0.00000 0.00000 ; imides
8664 8647 8648 8649 3 33.20422 0.00000 -33.20422 0.00000 0.00000 0.00000 ; methylguanidinium ion
8664 8647 8648 8655 3 30.28798 -4.81160 -25.47638 0.00000 0.00000 0.00000 ; imides
8666 6730 6729 6728 3 1.58992 4.76976 0.00000 -6.35968 0.00000 0.00000
8666 6730 6729 6731 3 1.58992 4.76976 0.00000 -6.35968 0.00000 0.00000
8666 6730 6729 6732 3 1.58992 4.76976 0.00000 -6.35968 0.00000 0.00000
8671 8672 8679 8680 3 30.28798 -4.81160 -25.47638 0.00000 0.00000 0.00000 ; imides
8671 8689 8690 8691 3 33.20422 0.00000 -33.20422 0.00000 0.00000 0.00000 ; methylguanidinium ion
8671 8689 8690 8694 3 20.50160 0.00000 -20.50160 0.00000 0.00000 0.00000 ; imides
8672 8671 8689 8688 3 30.28798 -4.81160 -25.47638 0.00000 0.00000 0.00000 ; imides
8672 8671 8689 8690 3 33.20422 0.00000 -33.20422 0.00000 0.00000 0.00000 ; methylguanidinium ion
8672 8679 8680 8681 3 33.20422 0.00000 -33.20422 0.00000 0.00000 0.00000 ; methylguanidinium ion
8672 8679 8680 8688 3 30.28798 -4.81160 -25.47638 0.00000 0.00000 0.00000 ; imides
8673 8672 8679 8680 3 33.20422 0.00000 -33.20422 0.00000 0.00000 0.00000 ; methylguanidinium ion
8674 1243 1242 1241 3 1.58992 4.76976 0.00000 -6.35968 0.00000 0.00000
8674 1243 1242 1244 3 1.58992 4.76976 0.00000 -6.35968 0.00000 0.00000
8674 1243 1242 1245 3 1.58992 4.76976 0.00000 -6.35968 0.00000 0.00000
8679 8672 8673 8674 3 33.20422 0.00000 -33.20422 0.00000 0.00000 0.00000 ; methylguanidinium ion
8679 8672 8673 8677 3 20.50160 0.00000 -20.50160 0.00000 0.00000 0.00000 ; imides
8679 8680 8688 8689 3 30.28798 -4.81160 -25.47638 0.00000 0.00000 0.00000 ; imides
8680 8688 8689 8671 3 30.28798 -4.81160 -25.47638 0.00000 0.00000 0.00000 ; imides
8680 8688 8689 8690 3 33.20422 0.00000 -33.20422 0.00000 0.00000 0.00000 ; methylguanidinium ion
8681 8680 8688 8689 3 33.20422 0.00000 -33.20422 0.00000 0.00000 0.00000 ; methylguanidinium ion
8682 8683 11964 11963 3 1.58992 4.76976 0.00000 -6.35968 0.00000 0.00000
8682 8683 11964 11965 3 1.58992 4.76976 0.00000 -6.35968 0.00000 0.00000
8682 8683 11964 11966 3 1.58992 4.76976 0.00000 -6.35968 0.00000 0.00000
8683 11964 11963 11962 3 1.78866 3.49154 0.53555 -5.81576 0.00000 0.00000
8683 11964 11963 11967 3 -1.26775 3.02085 1.74473 -3.49782 0.00000 0.00000
8688 8680 8681 8682 3 33.20422 0.00000 -33.20422 0.00000 0.00000 0.00000 ; methylguanidinium ion
8688 8680 8681 8686 3 20.50160 0.00000 -20.50160 0.00000 0.00000 0.00000 ; imides
8689 8671 8672 8673 3 33.20422 0.00000 -33.20422 0.00000 0.00000 0.00000 ; methylguanidinium ion
8689 8671 8672 8679 3 30.28798 -4.81160 -25.47638 0.00000 0.00000 0.00000 ; imides
8691 6764 6763 6762 3 1.58992 4.76976 0.00000 -6.35968 0.00000 0.00000
8691 6764 6763 6765 3 1.58992 4.76976 0.00000 -6.35968 0.00000 0.00000
8691 6764 6763 6766 3 1.58992 4.76976 0.00000 -6.35968 0.00000 0.00000
8696 8697 8704 8705 3 30.28798 -4.81160 -25.47638 0.00000 0.00000 0.00000 ; imides
8696 8715 8716 8717 3 33.20422 0.00000 -33.20422 0.00000 0.00000 0.00000 ; methylguanidinium ion
8696 8715 8716 8720 3 20.50160 0.00000 -20.50160 0.00000 0.00000 0.00000 ; imides
8697 8696 8715 8714 3 30.28798 -4.81160 -25.47638 0.00000 0.00000 0.00000 ; imides
8697 8696 8715 8716 3 33.20422 0.00000 -33.20422 0.00000 0.00000 0.00000 ; methylguanidinium ion
8697 8704 8705 8706 3 33.20422 0.00000 -33.20422 0.00000 0.00000 0.00000 ; methylguanidinium ion
8697 8704 8705 8714 3 30.28798 -4.81160 -25.47638 0.00000 0.00000 0.00000 ; imides
8698 8697 8704 8705 3 33.20422 0.00000 -33.20422 0.00000 0.00000 0.00000 ; methylguanidinium ion
8699 500 499 498 3 1.58992 4.76976 0.00000 -6.35968 0.00000 0.00000
8699 500 499 501 3 1.58992 4.76976 0.00000 -6.35968 0.00000 0.00000
8699 500 499 502 3 1.58992 4.76976 0.00000 -6.35968 0.00000 0.00000
8704 8697 8698 8699 3 33.20422 0.00000 -33.20422 0.00000 0.00000 0.00000 ; methylguanidinium ion
8704 8697 8698 8702 3 20.50160 0.00000 -20.50160 0.00000 0.00000 0.00000 ; imides
8704 8705 8714 8715 3 30.28798 -4.81160 -25.47638 0.00000 0.00000 0.00000 ; imides
8705 8714 8715 8696 3 30.28798 -4.81160 -25.47638 0.00000 0.00000 0.00000 ; imides
8705 8714 8715 8716 3 33.20422 0.00000 -33.20422 0.00000 0.00000 0.00000 ; methylguanidinium ion
8706 8705 8714 8715 3 33.20422 0.00000 -33.20422 0.00000 0.00000 0.00000 ; methylguanidinium ion
8714 8705 8706 8707 3 33.20422 0.00000 -33.20422 0.00000 0.00000 0.00000 ; methylguanidinium ion
8714 8705 8706 8712 3 20.50160 0.00000 -20.50160 0.00000 0.00000 0.00000 ; imides
8715 8696 8697 8698 3 33.20422 0.00000 -33.20422 0.00000 0.00000 0.00000 ; methylguanidinium ion
8715 8696 8697 8704 3 30.28798 -4.81160 -25.47638 0.00000 0.00000 0.00000 ; imides
8717 8153 8152 8151 3 1.58992 4.76976 0.00000 -6.35968 0.00000 0.00000
8717 8153 8152 8154 3 1.58992 4.76976 0.00000 -6.35968 0.00000 0.00000
8717 8153 8152 8155 3 1.58992 4.76976 0.00000 -6.35968 0.00000 0.00000
8722 8723 8730 8731 3 30.28798 -4.81160 -25.47638 0.00000 0.00000 0.00000 ; imides
8722 8739 8740 8741 3 33.20422 0.00000 -33.20422 0.00000 0.00000 0.00000 ; methylguanidinium ion
8722 8739 8740 8745 3 20.50160 0.00000 -20.50160 0.00000 0.00000 0.00000 ; imides
8723 8722 8739 8738 3 30.28798 -4.81160 -25.47638 0.00000 0.00000 0.00000 ; imides
8723 8722 8739 8740 3 33.20422 0.00000 -33.20422 0.00000 0.00000 0.00000 ; methylguanidinium ion
8723 8730 8731 8732 3 33.20422 0.00000 -33.20422 0.00000 0.00000 0.00000 ; methylguanidinium ion
8723 8730 8731 8738 3 30.28798 -4.81160 -25.47638 0.00000 0.00000 0.00000 ; imides
8724 8723 8730 8731 3 33.20422 0.00000 -33.20422 0.00000 0.00000 0.00000 ; methylguanidinium ion
8725 6943 6942 6941 3 1.58992 4.76976 0.00000 -6.35968 0.00000 0.00000
8725 6943 6942 6944 3 1.58992 4.76976 0.00000 -6.35968 0.00000 0.00000
8725 6943 6942 6945 3 1.58992 4.76976 0.00000 -6.35968 0.00000 0.00000
8730 8723 8724 8725 3 33.20422 0.00000 -33.20422 0.00000 0.00000 0.00000 ; methylguanidinium ion
8730 8723 8724 8728 3 20.50160 0.00000 -20.50160 0.00000 0.00000 0.00000 ; imides
8730 8731 8738 8739 3 30.28798 -4.81160 -25.47638 0.00000 0.00000 0.00000 ; imides
8731 8738 8739 8722 3 30.28798 -4.81160 -25.47638 0.00000 0.00000 0.00000 ; imides
8731 8738 8739 8740 3 33.20422 0.00000 -33.20422 0.00000 0.00000 0.00000 ; methylguanidinium ion
8732 8731 8738 8739 3 33.20422 0.00000 -33.20422 0.00000 0.00000 0.00000 ; methylguanidinium ion
8733 8237 8236 8235 3 1.58992 4.76976 0.00000 -6.35968 0.00000 0.00000
8733 8237 8236 8238 3 1.58992 4.76976 0.00000 -6.35968 0.00000 0.00000
8733 8237 8236 8239 3 1.58992 4.76976 0.00000 -6.35968 0.00000 0.00000
8738 8731 8732 8733 3 33.20422 0.00000 -33.20422 0.00000 0.00000 0.00000 ; methylguanidinium ion
8738 8731 8732 8736 3 20.50160 0.00000 -20.50160 0.00000 0.00000 0.00000 ; imides
8739 8722 8723 8724 3 33.20422 0.00000 -33.20422 0.00000 0.00000 0.00000 ; methylguanidinium ion
8739 8722 8723 8730 3 30.28798 -4.81160 -25.47638 0.00000 0.00000 0.00000 ; imides
8741 8742 12330 12329 3 1.58992 4.76976 0.00000 -6.35968 0.00000 0.00000
8741 8742 12330 12331 3 1.58992 4.76976 0.00000 -6.35968 0.00000 0.00000
8741 8742 12330 12332 3 1.58992 4.76976 0.00000 -6.35968 0.00000 0.00000
8742 12330 12329 12328 3 1.78866 3.49154 0.53555 -5.81576 0.00000 0.00000
8742 12330 12329 12333 3 -1.26775 3.02085 1.74473 -3.49782 0.00000 0.00000
8747 8748 8756 8757 3 30.28798 -4.81160 -25.47638 0.00000 0.00000 0.00000 ; imides
8747 8766 8767 8768 3 33.20422 0.00000 -33.20422 0.00000 0.00000 0.00000 ; methylguanidinium ion
8747 8766 8767 8772 3 20.50160 0.00000 -20.50160 0.00000 0.00000 0.00000 ; imides
8748 8747 8766 8765 3 30.28798 -4.81160 -25.47638 0.00000 0.00000 0.00000 ; imides
8748 8747 8766 8767 3 33.20422 0.00000 -33.20422 0.00000 0.00000 0.00000 ; methylguanidinium ion
8748 8756 8757 8758 3 33.20422 0.00000 -33.20422 0.00000 0.00000 0.00000 ; methylguanidinium ion
8748 8756 8757 8765 3 30.28798 -4.81160 -25.47638 0.00000 0.00000 0.00000 ; imides
8749 8748 8756 8757 3 33.20422 0.00000 -33.20422 0.00000 0.00000 0.00000 ; methylguanidinium ion
8750 8751 9929 9928 3 1.58992 4.76976 0.00000 -6.35968 0.00000 0.00000
8750 8751 9929 9930 3 1.58992 4.76976 0.00000 -6.35968 0.00000 0.00000
8750 8751 9929 9931 3 1.58992 4.76976 0.00000 -6.35968 0.00000 0.00000
8751 9929 9928 9927 3 1.78866 3.49154 0.53555 -5.81576 0.00000 0.00000
8751 9929 9928 9932 3 -1.26775 3.02085 1.74473 -3.49782 0.00000 0.00000
8756 8748 8749 8750 3 33.20422 0.00000 -33.20422 0.00000 0.00000 0.00000 ; methylguanidinium ion
8756 8748 8749 8754 3 20.50160 0.00000 -20.50160 0.00000 0.00000 0.00000 ; imides
8756 8757 8765 8766 3 30.28798 -4.81160 -25.47638 0.00000 0.00000 0.00000 ; imides
8757 8765 8766 8747 3 30.28798 -4.81160 -25.47638 0.00000 0.00000 0.00000 ; imides
8757 8765 8766 8767 3 33.20422 0.00000 -33.20422 0.00000 0.00000 0.00000 ; methylguanidinium ion
8758 8757 8765 8766 3 33.20422 0.00000 -33.20422 0.00000 0.00000 0.00000 ; methylguanidinium ion
8759 8760 11874 11873 3 1.58992 4.76976 0.00000 -6.35968 0.00000 0.00000
8759 8760 11874 11875 3 1.58992 4.76976 0.00000 -6.35968 0.00000 0.00000
8759 8760 11874 11876 3 1.58992 4.76976 0.00000 -6.35968 0.00000 0.00000
8760 11874 11873 11872 3 1.78866 3.49154 0.53555 -5.81576 0.00000 0.00000
8760 11874 11873 11877 3 -1.26775 3.02085 1.74473 -3.49782 0.00000 0.00000
8765 8757 8758 8759 3 33.20422 0.00000 -33.20422 0.00000 0.00000 0.00000 ; methylguanidinium ion
8765 8757 8758 8763 3 20.50160 0.00000 -20.50160 0.00000 0.00000 0.00000 ; imides
8766 8747 8748 8749 3 33.20422 0.00000 -33.20422 0.00000 0.00000 0.00000 ; methylguanidinium ion
8766 8747 8748 8756 3 30.28798 -4.81160 -25.47638 0.00000 0.00000 0.00000 ; imides
8768 8769 11576 11575 3 1.58992 4.76976 0.00000 -6.35968 0.00000 0.00000
8768 8769 11576 11577 3 1.58992 4.76976 0.00000 -6.35968 0.00000 0.00000
8768 8769 11576 11578 3 1.58992 4.76976 0.00000 -6.35968 0.00000 0.00000
8769 11576 11575 11574 3 1.78866 3.49154 0.53555 -5.81576 0.00000 0.00000
8769 11576 11575 11579 3 -1.26775 3.02085 1.74473 -3.49782 0.00000 0.00000
8774 8775 8782 8783 3 30.28798 -4.81160 -25.47638 0.00000 0.00000 0.00000 ; imides
8774 8792 8793 8794 3 33.20422 0.00000 -33.20422 0.00000 0.00000 0.00000 ; methylguanidinium ion
8774 8792 8793 8797 3 20.50160 0.00000 -20.50160 0.00000 0.00000 0.00000 ; imides
8775 8774 8792 8791 3 30.28798 -4.81160 -25.47638 0.00000 0.00000 0.00000 ; imides
8775 8774 8792 8793 3 33.20422 0.00000 -33.20422 0.00000 0.00000 0.00000 ; methylguanidinium ion
8775 8782 8783 8784 3 33.20422 0.00000 -33.20422 0.00000 0.00000 0.00000 ; methylguanidinium ion
8775 8782 8783 8791 3 30.28798 -4.81160 -25.47638 0.00000 0.00000 0.00000 ; imides
8776 8775 8782 8783 3 33.20422 0.00000 -33.20422 0.00000 0.00000 0.00000 ; methylguanidinium ion
8777 5648 5647 5646 3 1.58992 4.76976 0.00000 -6.35968 0.00000 0.00000
8777 5648 5647 5649 3 1.58992 4.76976 0.00000 -6.35968 0.00000 0.00000
8777 5648 5647 5650 3 1.58992 4.76976 0.00000 -6.35968 0.00000 0.00000
8782 8775 8776 8777 3 33.20422 0.00000 -33.20422 0.00000 0.00000 0.00000 ; methylguanidinium ion
8782 8775 8776 8780 3 20.50160 0.00000 -20.50160 0.00000 0.00000 0.00000 ; imides
8782 8783 8791 8792 3 30.28798 -4.81160 -25.47638 0.00000 0.00000 0.00000 ; imides
8783 8791 8792 8774 3 30.28798 -4.81160 -25.47638 0.00000 0.00000 0.00000 ; imides
8783 8791 8792 8793 3 33.20422 0.00000 -33.20422 0.00000 0.00000 0.00000 ; methylguanidinium ion
8784 8783 8791 8792 3 33.20422 0.00000 -33.20422 0.00000 0.00000 0.00000 ; methylguanidinium ion
8785 8786 11775 11774 3 1.58992 4.76976 0.00000 -6.35968 0.00000 0.00000
8785 8786 11775 11776 3 1.58992 4.76976 0.00000 -6.35968 0.00000 0.00000
8785 8786 11775 11777 3 1.58992 4.76976 0.00000 -6.35968 0.00000 0.00000
8786 11775 11774 11773 3 1.78866 3.49154 0.53555 -5.81576 0.00000 0.00000
8786 11775 11774 11778 3 -1.26775 3.02085 1.74473 -3.49782 0.00000 0.00000
8791 8783 8784 8785 3 33.20422 0.00000 -33.20422 0.00000 0.00000 0.00000 ; methylguanidinium ion
8791 8783 8784 8789 3 20.50160 0.00000 -20.50160 0.00000 0.00000 0.00000 ; imides
8792 8774 8775 8776 3 33.20422 0.00000 -33.20422 0.00000 0.00000 0.00000 ; methylguanidinium ion
8792 8774 8775 8782 3 30.28798 -4.81160 -25.47638 0.00000 0.00000 0.00000 ; imides
8794 7030 7029 7028 3 1.58992 4.76976 0.00000 -6.35968 0.00000 0.00000
8794 7030 7029 7031 3 1.58992 4.76976 0.00000 -6.35968 0.00000 0.00000
8794 7030 7029 7032 3 1.58992 4.76976 0.00000 -6.35968 0.00000 0.00000
8799 8800 8808 8809 3 30.28798 -4.81160 -25.47638 0.00000 0.00000 0.00000 ; imides
8799 8817 8818 8819 3 33.20422 0.00000 -33.20422 0.00000 0.00000 0.00000 ; methylguanidinium ion
8799 8817 8818 8823 3 20.50160 0.00000 -20.50160 0.00000 0.00000 0.00000 ; imides
8800 8799 8817 8816 3 30.28798 -4.81160 -25.47638 0.00000 0.00000 0.00000 ; imides
8800 8799 8817 8818 3 33.20422 0.00000 -33.20422 0.00000 0.00000 0.00000 ; methylguanidinium ion
8800 8808 8809 8810 3 33.20422 0.00000 -33.20422 0.00000 0.00000 0.00000 ; methylguanidinium ion
8800 8808 8809 8816 3 30.28798 -4.81160 -25.47638 0.00000 0.00000 0.00000 ; imides
8801 8800 8808 8809 3 33.20422 0.00000 -33.20422 0.00000 0.00000 0.00000 ; methylguanidinium ion
8802 8803 9367 9366 3 1.58992 4.76976 0.00000 -6.35968 0.00000 0.00000
8802 8803 9367 9368 3 1.58992 4.76976 0.00000 -6.35968 0.00000 0.00000
8802 8803 9367 9369 3 1.58992 4.76976 0.00000 -6.35968 0.00000 0.00000
8803 9367 9366 9365 3 1.78866 3.49154 0.53555 -5.81576 0.00000 0.00000
8803 9367 9366 9370 3 -1.26775 3.02085 1.74473 -3.49782 0.00000 0.00000
8808 8800 8801 8802 3 33.20422 0.00000 -33.20422 0.00000 0.00000 0.00000 ; methylguanidinium ion
8808 8800 8801 8806 3 20.50160 0.00000 -20.50160 0.00000 0.00000 0.00000 ; imides
8808 8809 8816 8817 3 30.28798 -4.81160 -25.47638 0.00000 0.00000 0.00000 ; imides
8809 8816 8817 8799 3 30.28798 -4.81160 -25.47638 0.00000 0.00000 0.00000 ; imides
8809 8816 8817 8818 3 33.20422 0.00000 -33.20422 0.00000 0.00000 0.00000 ; methylguanidinium ion
8810 8809 8816 8817 3 33.20422 0.00000 -33.20422 0.00000 0.00000 0.00000 ; methylguanidinium ion
8811 363 362 361 3 1.58992 4.76976 0.00000 -6.35968 0.00000 0.00000
8811 363 362 364 3 1.58992 4.76976 0.00000 -6.35968 0.00000 0.00000
8811 363 362 365 3 1.58992 4.76976 0.00000 -6.35968 0.00000 0.00000
8816 8809 8810 8811 3 33.20422 0.00000 -33.20422 0.00000 0.00000 0.00000 ; methylguanidinium ion
8816 8809 8810 8814 3 20.50160 0.00000 -20.50160 0.00000 0.00000 0.00000 ; imides
8817 8799 8800 8801 3 33.20422 0.00000 -33.20422 0.00000 0.00000 0.00000 ; methylguanidinium ion
8817 8799 8800 8808 3 30.28798 -4.81160 -25.47638 0.00000 0.00000 0.00000 ; imides
8819 8820 11441 11440 3 1.58992 4.76976 0.00000 -6.35968 0.00000 0.00000
8819 8820 11441 11442 3 1.58992 4.76976 0.00000 -6.35968 0.00000 0.00000
8819 8820 11441 11443 3 1.58992 4.76976 0.00000 -6.35968 0.00000 0.00000
8820 11441 11440 11439 3 1.78866 3.49154 0.53555 -5.81576 0.00000 0.00000
8820 11441 11440 11444 3 -1.26775 3.02085 1.74473 -3.49782 0.00000 0.00000
8825 8826 8833 8834 3 30.28798 -4.81160 -25.47638 0.00000 0.00000 0.00000 ; imides
8825 8842 8843 8844 3 33.20422 0.00000 -33.20422 0.00000 0.00000 0.00000 ; methylguanidinium ion
8825 8842 8843 8848 3 20.50160 0.00000 -20.50160 0.00000 0.00000 0.00000 ; imides
8826 8825 8842 8841 3 30.28798 -4.81160 -25.47638 0.00000 0.00000 0.00000 ; imides
8826 8825 8842 8843 3 33.20422 0.00000 -33.20422 0.00000 0.00000 0.00000 ; methylguanidinium ion
8826 8833 8834 8835 3 33.20422 0.00000 -33.20422 0.00000 0.00000 0.00000 ; methylguanidinium ion
8826 8833 8834 8841 3 30.28798 -4.81160 -25.47638 0.00000 0.00000 0.00000 ; imides
8827 8826 8833 8834 3 33.20422 0.00000 -33.20422 0.00000 0.00000 0.00000 ; methylguanidinium ion
8828 3392 3391 3390 3 1.58992 4.76976 0.00000 -6.35968 0.00000 0.00000
8828 3392 3391 3393 3 1.58992 4.76976 0.00000 -6.35968 0.00000 0.00000
8828 3392 3391 3394 3 1.58992 4.76976 0.00000 -6.35968 0.00000 0.00000
8833 8826 8827 8828 3 33.20422 0.00000 -33.20422 0.00000 0.00000 0.00000 ; methylguanidinium ion
8833 8826 8827 8831 3 20.50160 0.00000 -20.50160 0.00000 0.00000 0.00000 ; imides
8833 8834 8841 8842 3 30.28798 -4.81160 -25.47638 0.00000 0.00000 0.00000 ; imides
8834 8841 8842 8825 3 30.28798 -4.81160 -25.47638 0.00000 0.00000 0.00000 ; imides
8834 8841 8842 8843 3 33.20422 0.00000 -33.20422 0.00000 0.00000 0.00000 ; methylguanidinium ion
8835 8834 8841 8842 3 33.20422 0.00000 -33.20422 0.00000 0.00000 0.00000 ; methylguanidinium ion
8836 7325 7324 7323 3 1.58992 4.76976 0.00000 -6.35968 0.00000 0.00000
8836 7325 7324 7326 3 1.58992 4.76976 0.00000 -6.35968 0.00000 0.00000
8836 7325 7324 7327 3 1.58992 4.76976 0.00000 -6.35968 0.00000 0.00000
8841 8834 8835 8836 3 33.20422 0.00000 -33.20422 0.00000 0.00000 0.00000 ; methylguanidinium ion
8841 8834 8835 8839 3 20.50160 0.00000 -20.50160 0.00000 0.00000 0.00000 ; imides
8842 8825 8826 8827 3 33.20422 0.00000 -33.20422 0.00000 0.00000 0.00000 ; methylguanidinium ion
8842 8825 8826 8833 3 30.28798 -4.81160 -25.47638 0.00000 0.00000 0.00000 ; imides
8844 8845 10476 10475 3 1.58992 4.76976 0.00000 -6.35968 0.00000 0.00000
8844 8845 10476 10477 3 1.58992 4.76976 0.00000 -6.35968 0.00000 0.00000
8844 8845 10476 10478 3 1.58992 4.76976 0.00000 -6.35968 0.00000 0.00000
8845 10476 10475 10474 3 1.78866 3.49154 0.53555 -5.81576 0.00000 0.00000
8845 10476 10475 10479 3 -1.26775 3.02085 1.74473 -3.49782 0.00000 0.00000
8850 8851 8858 8859 3 30.28798 -4.81160 -25.47638 0.00000 0.00000 0.00000 ; imides
8850 8868 8869 8870 3 33.20422 0.00000 -33.20422 0.00000 0.00000 0.00000 ; methylguanidinium ion
8850 8868 8869 8873 3 20.50160 0.00000 -20.50160 0.00000 0.00000 0.00000 ; imides
8851 8850 8868 8867 3 30.28798 -4.81160 -25.47638 0.00000 0.00000 0.00000 ; imides
8851 8850 8868 8869 3 33.20422 0.00000 -33.20422 0.00000 0.00000 0.00000 ; methylguanidinium ion
8851 8858 8859 8860 3 33.20422 0.00000 -33.20422 0.00000 0.00000 0.00000 ; methylguanidinium ion
8851 8858 8859 8867 3 30.28798 -4.81160 -25.47638 0.00000 0.00000 0.00000 ; imides
8852 8851 8858 8859 3 33.20422 0.00000 -33.20422 0.00000 0.00000 0.00000 ; methylguanidinium ion
8853 226 225 224 3 1.58992 4.76976 0.00000 -6.35968 0.00000 0.00000
8853 226 225 227 3 1.58992 4.76976 0.00000 -6.35968 0.00000 0.00000
8853 226 225 228 3 1.58992 4.76976 0.00000 -6.35968 0.00000 0.00000
8858 8851 8852 8853 3 33.20422 0.00000 -33.20422 0.00000 0.00000 0.00000 ; methylguanidinium ion
8858 8851 8852 8856 3 20.50160 0.00000 -20.50160 0.00000 0.00000 0.00000 ; imides
8858 8859 8867 8868 3 30.28798 -4.81160 -25.47638 0.00000 0.00000 0.00000 ; imides
8859 8867 8868 8850 3 30.28798 -4.81160 -25.47638 0.00000 0.00000 0.00000 ; imides
8859 8867 8868 8869 3 33.20422 0.00000 -33.20422 0.00000 0.00000 0.00000 ; methylguanidinium ion
8860 8859 8867 8868 3 33.20422 0.00000 -33.20422 0.00000 0.00000 0.00000 ; methylguanidinium ion
8861 8862 10935 10934 3 1.58992 4.76976 0.00000 -6.35968 0.00000 0.00000
8861 8862 10935 10936 3 1.58992 4.76976 0.00000 -6.35968 0.00000 0.00000
8861 8862 10935 10937 3 1.58992 4.76976 0.00000 -6.35968 0.00000 0.00000
8862 10935 10934 10933 3 1.78866 3.49154 0.53555 -5.81576 0.00000 0.00000
8862 10935 10934 10938 3 -1.26775 3.02085 1.74473 -3.49782 0.00000 0.00000
8867 8859 8860 8861 3 33.20422 0.00000 -33.20422 0.00000 0.00000 0.00000 ; methylguanidinium ion
8867 8859 8860 8865 3 20.50160 0.00000 -20.50160 0.00000 0.00000 0.00000 ; imides
8868 8850 8851 8852 3 33.20422 0.00000 -33.20422 0.00000 0.00000 0.00000 ; methylguanidinium ion
8868 8850 8851 8858 3 30.28798 -4.81160 -25.47638 0.00000 0.00000 0.00000 ; imides
8870 317 316 315 3 1.58992 4.76976 0.00000 -6.35968 0.00000 0.00000
8870 317 316 318 3 1.58992 4.76976 0.00000 -6.35968 0.00000 0.00000
8870 317 316 319 3 1.58992 4.76976 0.00000 -6.35968 0.00000 0.00000
8875 8876 8885 8886 3 30.28798 -4.81160 -25.47638 0.00000 0.00000 0.00000 ; imides
8875 8894 8895 8896 3 33.20422 0.00000 -33.20422 0.00000 0.00000 0.00000 ; methylguanidinium ion
8875 8894 8895 8899 3 20.50160 0.00000 -20.50160 0.00000 0.00000 0.00000 ; imides
8876 8875 8894 8893 3 30.28798 -4.81160 -25.47638 0.00000 0.00000 0.00000 ; imides
8876 8875 8894 8895 3 33.20422 0.00000 -33.20422 0.00000 0.00000 0.00000 ; methylguanidinium ion
8876 8885 8886 8887 3 33.20422 0.00000 -33.20422 0.00000 0.00000 0.00000 ; methylguanidinium ion
8876 8885 8886 8893 3 30.28798 -4.81160 -25.47638 0.00000 0.00000 0.00000 ; imides
8877 8876 8885 8886 3 33.20422 0.00000 -33.20422 0.00000 0.00000 0.00000 ; methylguanidinium ion
8885 8876 8877 8878 3 33.20422 0.00000 -33.20422 0.00000 0.00000 0.00000 ; methylguanidinium ion
8885 8876 8877 8883 3 20.50160 0.00000 -20.50160 0.00000 0.00000 0.00000 ; imides
8885 8886 8893 8894 3 30.28798 -4.81160 -25.47638 0.00000 0.00000 0.00000 ; imides
8886 8893 8894 8875 3 30.28798 -4.81160 -25.47638 0.00000 0.00000 0.00000 ; imides
8886 8893 8894 8895 3 33.20422 0.00000 -33.20422 0.00000 0.00000 0.00000 ; methylguanidinium ion
8887 8886 8893 8894 3 33.20422 0.00000 -33.20422 0.00000 0.00000 0.00000 ; methylguanidinium ion
8888 681 680 679 3 1.58992 4.76976 0.00000 -6.35968 0.00000 0.00000
8888 681 680 682 3 1.58992 4.76976 0.00000 -6.35968 0.00000 0.00000
8888 681 680 683 3 1.58992 4.76976 0.00000 -6.35968 0.00000 0.00000
8893 8886 8887 8888 3 33.20422 0.00000 -33.20422 0.00000 0.00000 0.00000 ; methylguanidinium ion
8893 8886 8887 8891 3 20.50160 0.00000 -20.50160 0.00000 0.00000 0.00000 ; imides
8894 8875 8876 8877 3 33.20422 0.00000 -33.20422 0.00000 0.00000 0.00000 ; methylguanidinium ion
8894 8875 8876 8885 3 30.28798 -4.81160 -25.47638 0.00000 0.00000 0.00000 ; imides
8896 7899 7898 7897 3 1.58992 4.76976 0.00000 -6.35968 0.00000 0.00000
8896 7899 7898 7900 3 1.58992 4.76976 0.00000 -6.35968 0.00000 0.00000
8896 7899 7898 7901 3 1.58992 4.76976 0.00000 -6.35968 0.00000 0.00000
8901 8902 8909 8910 3 30.28798 -4.81160 -25.47638 0.00000 0.00000 0.00000 ; imides
8901 8919 8920 8921 3 33.20422 0.00000 -33.20422 0.00000 0.00000 0.00000 ; methylguanidinium ion
8901 8919 8920 8924 3 20.50160 0.00000 -20.50160 0.00000 0.00000 0.00000 ; imides
8902 8901 8919 8918 3 30.28798 -4.81160 -25.47638 0.00000 0.00000 0.00000 ; imides
8902 8901 8919 8920 3 33.20422 0.00000 -33.20422 0.00000 0.00000 0.00000 ; methylguanidinium ion
8902 8909 8910 8911 3 33.20422 0.00000 -33.20422 0.00000 0.00000 0.00000 ; methylguanidinium ion
8902 8909 8910 8918 3 30.28798 -4.81160 -25.47638 0.00000 0.00000 0.00000 ; imides
8903 8902 8909 8910 3 33.20422 0.00000 -33.20422 0.00000 0.00000 0.00000 ; methylguanidinium ion
8904 8626 8625 8624 3 1.58992 4.76976 0.00000 -6.35968 0.00000 0.00000
8904 8626 8625 8627 3 1.58992 4.76976 0.00000 -6.35968 0.00000 0.00000
8904 8626 8625 8628 3 1.58992 4.76976 0.00000 -6.35968 0.00000 0.00000
8909 8902 8903 8904 3 33.20422 0.00000 -33.20422 0.00000 0.00000 0.00000 ; methylguanidinium ion
8909 8902 8903 8907 3 20.50160 0.00000 -20.50160 0.00000 0.00000 0.00000 ; imides
8909 8910 8918 8919 3 30.28798 -4.81160 -25.47638 0.00000 0.00000 0.00000 ; imides
8910 8918 8919 8901 3 30.28798 -4.81160 -25.47638 0.00000 0.00000 0.00000 ; imides
8910 8918 8919 8920 3 33.20422 0.00000 -33.20422 0.00000 0.00000 0.00000 ; methylguanidinium ion
8911 8910 8918 8919 3 33.20422 0.00000 -33.20422 0.00000 0.00000 0.00000 ; methylguanidinium ion
8912 8913 9459 9458 3 1.58992 4.76976 0.00000 -6.35968 0.00000 0.00000
8912 8913 9459 9460 3 1.58992 4.76976 0.00000 -6.35968 0.00000 0.00000
8912 8913 9459 9461 3 1.58992 4.76976 0.00000 -6.35968 0.00000 0.00000
8913 9459 9458 9457 3 1.78866 3.49154 0.53555 -5.81576 0.00000 0.00000
8913 9459 9458 9462 3 -1.26775 3.02085 1.74473 -3.49782 0.00000 0.00000
8918 8910 8911 8912 3 33.20422 0.00000 -33.20422 0.00000 0.00000 0.00000 ; methylguanidinium ion
8918 8910 8911 8916 3 20.50160 0.00000 -20.50160 0.00000 0.00000 0.00000 ; imides
8919 8901 8902 8903 3 33.20422 0.00000 -33.20422 0.00000 0.00000 0.00000 ; methylguanidinium ion
8919 8901 8902 8909 3 30.28798 -4.81160 -25.47638 0.00000 0.00000 0.00000 ; imides
8921 5295 5294 5293 3 1.58992 4.76976 0.00000 -6.35968 0.00000 0.00000
8921 5295 5294 5296 3 1.58992 4.76976 0.00000 -6.35968 0.00000 0.00000
8921 5295 5294 5297 3 1.58992 4.76976 0.00000 -6.35968 0.00000 0.00000
8926 8927 8936 8937 3 30.28798 -4.81160 -25.47638 0.00000 0.00000 0.00000 ; imides
8926 8946 8947 8948 3 33.20422 0.00000 -33.20422 0.00000 0.00000 0.00000 ; methylguanidinium ion
8926 8946 8947 8951 3 20.50160 0.00000 -20.50160 0.00000 0.00000 0.00000 ; imides
8927 8926 8946 8945 3 30.28798 -4.81160 -25.47638 0.00000 0.00000 0.00000 ; imides
8927 8926 8946 8947 3 33.20422 0.00000 -33.20422 0.00000 0.00000 0.00000 ; methylguanidinium ion
8927 8936 8937 8938 3 33.20422 0.00000 -33.20422 0.00000 0.00000 0.00000 ; methylguanidinium ion
8927 8936 8937 8945 3 30.28798 -4.81160 -25.47638 0.00000 0.00000 0.00000 ; imides
8928 8927 8936 8937 3 33.20422 0.00000 -33.20422 0.00000 0.00000 0.00000 ; methylguanidinium ion
8936 8927 8928 8929 3 33.20422 0.00000 -33.20422 0.00000 0.00000 0.00000 ; methylguanidinium ion
8936 8927 8928 8934 3 20.50160 0.00000 -20.50160 0.00000 0.00000 0.00000 ; imides
8936 8937 8945 8946 3 30.28798 -4.81160 -25.47638 0.00000 0.00000 0.00000 ; imides
8937 8945 8946 8926 3 30.28798 -4.81160 -25.47638 0.00000 0.00000 0.00000 ; imides
8937 8945 8946 8947 3 33.20422 0.00000 -33.20422 0.00000 0.00000 0.00000 ; methylguanidinium ion
8938 8937 8945 8946 3 33.20422 0.00000 -33.20422 0.00000 0.00000 0.00000 ; methylguanidinium ion
8939 8940 11751 11750 3 1.58992 4.76976 0.00000 -6.35968 0.00000 0.00000
8939 8940 11751 11752 3 1.58992 4.76976 0.00000 -6.35968 0.00000 0.00000
8939 8940 11751 11753 3 1.58992 4.76976 0.00000 -6.35968 0.00000 0.00000
8940 11751 11750 11749 3 1.78866 3.49154 0.53555 -5.81576 0.00000 0.00000
8940 11751 11750 11754 3 -1.26775 3.02085 1.74473 -3.49782 0.00000 0.00000
8945 8937 8938 8939 3 33.20422 0.00000 -33.20422 0.00000 0.00000 0.00000 ; methylguanidinium ion
8945 8937 8938 8943 3 20.50160 0.00000 -20.50160 0.00000 0.00000 0.00000 ; imides
8946 8926 8927 8928 3 33.20422 0.00000 -33.20422 0.00000 0.00000 0.00000 ; methylguanidinium ion
8946 8926 8927 8936 3 30.28798 -4.81160 -25.47638 0.00000 0.00000 0.00000 ; imides
8948 5622 5621 5620 3 1.58992 4.76976 0.00000 -6.35968 0.00000 0.00000
8948 5622 5621 5623 3 1.58992 4.76976 0.00000 -6.35968 0.00000 0.00000
8948 5622 5621 5624 3 1.58992 4.76976 0.00000 -6.35968 0.00000 0.00000
8953 8954 8962 8963 3 30.28798 -4.81160 -25.47638 0.00000 0.00000 0.00000 ; imides
8953 8972 8973 8974 3 33.20422 0.00000 -33.20422 0.00000 0.00000 0.00000 ; methylguanidinium ion
8953 8972 8973 8977 3 20.50160 0.00000 -20.50160 0.00000 0.00000 0.00000 ; imides
8954 8953 8972 8971 3 30.28798 -4.81160 -25.47638 0.00000 0.00000 0.00000 ; imides
8954 8953 8972 8973 3 33.20422 0.00000 -33.20422 0.00000 0.00000 0.00000 ; methylguanidinium ion
8954 8962 8963 8964 3 33.20422 0.00000 -33.20422 0.00000 0.00000 0.00000 ; methylguanidinium ion
8954 8962 8963 8971 3 30.28798 -4.81160 -25.47638 0.00000 0.00000 0.00000 ; imides
8955 8954 8962 8963 3 33.20422 0.00000 -33.20422 0.00000 0.00000 0.00000 ; methylguanidinium ion
8956 8957 10086 10085 3 1.58992 4.76976 0.00000 -6.35968 0.00000 0.00000
8956 8957 10086 10087 3 1.58992 4.76976 0.00000 -6.35968 0.00000 0.00000
8956 8957 10086 10088 3 1.58992 4.76976 0.00000 -6.35968 0.00000 0.00000
8957 10086 10085 10084 3 1.78866 3.49154 0.53555 -5.81576 0.00000 0.00000
8957 10086 10085 10089 3 -1.26775 3.02085 1.74473 -3.49782 0.00000 0.00000
8962 8954 8955 8956 3 33.20422 0.00000 -33.20422 0.00000 0.00000 0.00000 ; methylguanidinium ion
8962 8954 8955 8960 3 20.50160 0.00000 -20.50160 0.00000 0.00000 0.00000 ; imides
8962 8963 8971 8972 3 30.28798 -4.81160 -25.47638 0.00000 0.00000 0.00000 ; imides
8963 8971 8972 8953 3 30.28798 -4.81160 -25.47638 0.00000 0.00000 0.00000 ; imides
8963 8971 8972 8973 3 33.20422 0.00000 -33.20422 0.00000 0.00000 0.00000 ; methylguanidinium ion
8964 8963 8971 8972 3 33.20422 0.00000 -33.20422 0.00000 0.00000 0.00000 ; methylguanidinium ion
8965 8966 10183 10182 3 1.58992 4.76976 0.00000 -6.35968 0.00000 0.00000
8965 8966 10183 10184 3 1.58992 4.76976 0.00000 -6.35968 0.00000 0.00000
8965 8966 10183 10185 3 1.58992 4.76976 0.00000 -6.35968 0.00000 0.00000
8966 10183 10182 10181 3 1.78866 3.49154 0.53555 -5.81576 0.00000 0.00000
8966 10183 10182 10186 3 -1.26775 3.02085 1.74473 -3.49782 0.00000 0.00000
8971 8963 8964 8965 3 33.20422 0.00000 -33.20422 0.00000 0.00000 0.00000 ; methylguanidinium ion
8971 8963 8964 8969 3 20.50160 0.00000 -20.50160 0.00000 0.00000 0.00000 ; imides
8972 8953 8954 8955 3 33.20422 0.00000 -33.20422 0.00000 0.00000 0.00000 ; methylguanidinium ion
8972 8953 8954 8962 3 30.28798 -4.81160 -25.47638 0.00000 0.00000 0.00000 ; imides
8974 8075 8074 8073 3 1.58992 4.76976 0.00000 -6.35968 0.00000 0.00000
8974 8075 8074 8076 3 1.58992 4.76976 0.00000 -6.35968 0.00000 0.00000
8974 8075 8074 8077 3 1.58992 4.76976 0.00000 -6.35968 0.00000 0.00000
8979 8980 8987 8988 3 30.28798 -4.81160 -25.47638 0.00000 0.00000 0.00000 ; imides
8979 8996 8997 8998 3 33.20422 0.00000 -33.20422 0.00000 0.00000 0.00000 ; methylguanidinium ion
8979 8996 8997 9001 3 20.50160 0.00000 -20.50160 0.00000 0.00000 0.00000 ; imides
8980 8979 8996 8995 3 30.28798 -4.81160 -25.47638 0.00000 0.00000 0.00000 ; imides
8980 8979 8996 8997 3 33.20422 0.00000 -33.20422 0.00000 0.00000 0.00000 ; methylguanidinium ion
8980 8987 8988 8989 3 33.20422 0.00000 -33.20422 0.00000 0.00000 0.00000 ; methylguanidinium ion
8980 8987 8988 8995 3 30.28798 -4.81160 -25.47638 0.00000 0.00000 0.00000 ; imides
8981 8980 8987 8988 3 33.20422 0.00000 -33.20422 0.00000 0.00000 0.00000 ; methylguanidinium ion
8982 8202 8201 8200 3 1.58992 4.76976 0.00000 -6.35968 0.00000 0.00000
8982 8202 8201 8203 3 1.58992 4.76976 0.00000 -6.35968 0.00000 0.00000
8982 8202 8201 8204 3 1.58992 4.76976 0.00000 -6.35968 0.00000 0.00000
8987 8980 8981 8982 3 33.20422 0.00000 -33.20422 0.00000 0.00000 0.00000 ; methylguanidinium ion
8987 8980 8981 8985 3 20.50160 0.00000 -20.50160 0.00000 0.00000 0.00000 ; imides
8987 8988 8995 8996 3 30.28798 -4.81160 -25.47638 0.00000 0.00000 0.00000 ; imides
8988 8995 8996 8979 3 30.28798 -4.81160 -25.47638 0.00000 0.00000 0.00000 ; imides
8988 8995 8996 8997 3 33.20422 0.00000 -33.20422 0.00000 0.00000 0.00000 ; methylguanidinium ion
8989 8988 8995 8996 3 33.20422 0.00000 -33.20422 0.00000 0.00000 0.00000 ; methylguanidinium ion
8990 4860 4859 4858 3 1.58992 4.76976 0.00000 -6.35968 0.00000 0.00000
8990 4860 4859 4861 3 1.58992 4.76976 0.00000 -6.35968 0.00000 0.00000
8990 4860 4859 4862 3 1.58992 4.76976 0.00000 -6.35968 0.00000 0.00000
8995 8988 8989 8990 3 33.20422 0.00000 -33.20422 0.00000 0.00000 0.00000 ; methylguanidinium ion
8995 8988 8989 8993 3 20.50160 0.00000 -20.50160 0.00000 0.00000 0.00000 ; imides
8996 8979 8980 8981 3 33.20422 0.00000 -33.20422 0.00000 0.00000 0.00000 ; methylguanidinium ion
8996 8979 8980 8987 3 30.28798 -4.81160 -25.47638 0.00000 0.00000 0.00000 ; imides
8998 2949 2948 2947 3 1.58992 4.76976 0.00000 -6.35968 0.00000 0.00000
8998 2949 2948 2950 3 1.58992 4.76976 0.00000 -6.35968 0.00000 0.00000
8998 2949 2948 2951 3 1.58992 4.76976 0.00000 -6.35968 0.00000 0.00000
9003 9004 9013 9014 3 30.28798 -4.81160 -25.47638 0.00000 0.00000 0.00000 ; imides
9003 9022 9023 9024 3 33.20422 0.00000 -33.20422 0.00000 0.00000 0.00000 ; methylguanidinium ion
9003 9022 9023 9027 3 20.50160 0.00000 -20.50160 0.00000 0.00000 0.00000 ; imides
9004 9003 9022 9021 3 30.28798 -4.81160 -25.47638 0.00000 0.00000 0.00000 ; imides
9004 9003 9022 9023 3 33.20422 0.00000 -33.20422 0.00000 0.00000 0.00000 ; methylguanidinium ion
9004 9013 9014 9015 3 33.20422 0.00000 -33.20422 0.00000 0.00000 0.00000 ; methylguanidinium ion
9004 9013 9014 9021 3 30.28798 -4.81160 -25.47638 0.00000 0.00000 0.00000 ; imides
9005 9004 9013 9014 3 33.20422 0.00000 -33.20422 0.00000 0.00000 0.00000 ; methylguanidinium ion
9013 9004 9005 9006 3 33.20422 0.00000 -33.20422 0.00000 0.00000 0.00000 ; methylguanidinium ion
9013 9004 9005 9011 3 20.50160 0.00000 -20.50160 0.00000 0.00000 0.00000 ; imides
9013 9014 9021 9022 3 30.28798 -4.81160 -25.47638 0.00000 0.00000 0.00000 ; imides
9014 9021 9022 9003 3 30.28798 -4.81160 -25.47638 0.00000 0.00000 0.00000 ; imides
9014 9021 9022 9023 3 33.20422 0.00000 -33.20422 0.00000 0.00000 0.00000 ; methylguanidinium ion
9015 9014 9021 9022 3 33.20422 0.00000 -33.20422 0.00000 0.00000 0.00000 ; methylguanidinium ion
9016 7307 7306 7305 3 1.58992 4.76976 0.00000 -6.35968 0.00000 0.00000
9016 7307 7306 7308 3 1.58992 4.76976 0.00000 -6.35968 0.00000 0.00000
9016 7307 7306 7309 3 1.58992 4.76976 0.00000 -6.35968 0.00000 0.00000
9021 9014 9015 9016 3 33.20422 0.00000 -33.20422 0.00000 0.00000 0.00000 ; methylguanidinium ion
9021 9014 9015 9019 3 20.50160 0.00000 -20.50160 0.00000 0.00000 0.00000 ; imides
9022 9003 9004 9005 3 33.20422 0.00000 -33.20422 0.00000 0.00000 0.00000 ; methylguanidinium ion
9022 9003 9004 9013 3 30.28798 -4.81160 -25.47638 0.00000 0.00000 0.00000 ; imides
9024 1969 1968 1967 3 1.58992 4.76976 0.00000 -6.35968 0.00000 0.00000
9024 1969 1968 1970 3 1.58992 4.76976 0.00000 -6.35968 0.00000 0.00000
9024 1969 1968 1971 3 1.58992 4.76976 0.00000 -6.35968 0.00000 0.00000
9029 9030 9037 9038 3 30.28798 -4.81160 -25.47638 0.00000 0.00000 0.00000 ; imides
9029 9047 9048 9049 3 33.20422 0.00000 -33.20422 0.00000 0.00000 0.00000 ; methylguanidinium ion
9029 9047 9048 9052 3 20.50160 0.00000 -20.50160 0.00000 0.00000 0.00000 ; imides
9030 9029 9047 9046 3 30.28798 -4.81160 -25.47638 0.00000 0.00000 0.00000 ; imides
9030 9029 9047 9048 3 33.20422 0.00000 -33.20422 0.00000 0.00000 0.00000 ; methylguanidinium ion
9030 9037 9038 9039 3 33.20422 0.00000 -33.20422 0.00000 0.00000 0.00000 ; methylguanidinium ion
9030 9037 9038 9046 3 30.28798 -4.81160 -25.47638 0.00000 0.00000 0.00000 ; imides
9031 9030 9037 9038 3 33.20422 0.00000 -33.20422 0.00000 0.00000 0.00000 ; methylguanidinium ion
9032 5450 5449 5448 3 1.58992 4.76976 0.00000 -6.35968 0.00000 0.00000
9032 5450 5449 5451 3 1.58992 4.76976 0.00000 -6.35968 0.00000 0.00000
9032 5450 5449 5452 3 1.58992 4.76976 0.00000 -6.35968 0.00000 0.00000
9037 9030 9031 9032 3 33.20422 0.00000 -33.20422 0.00000 0.00000 0.00000 ; methylguanidinium ion
9037 9030 9031 9035 3 20.50160 0.00000 -20.50160 0.00000 0.00000 0.00000 ; imides
9037 9038 9046 9047 3 30.28798 -4.81160 -25.47638 0.00000 0.00000 0.00000 ; imides
9038 9046 9047 9029 3 30.28798 -4.81160 -25.47638 0.00000 0.00000 0.00000 ; imides
9038 9046 9047 9048 3 33.20422 0.00000 -33.20422 0.00000 0.00000 0.00000 ; methylguanidinium ion
9039 9038 9046 9047 3 33.20422 0.00000 -33.20422 0.00000 0.00000 0.00000 ; methylguanidinium ion
9040 9041 12602 12601 3 1.58992 4.76976 0.00000 -6.35968 0.00000 0.00000
9040 9041 12602 12603 3 1.58992 4.76976 0.00000 -6.35968 0.00000 0.00000
9040 9041 12602 12604 3 1.58992 4.76976 0.00000 -6.35968 0.00000 0.00000
9041 12602 12601 12600 3 1.78866 3.49154 0.53555 -5.81576 0.00000 0.00000
9041 12602 12601 12605 3 -1.26775 3.02085 1.74473 -3.49782 0.00000 0.00000
9046 9038 9039 9040 3 33.20422 0.00000 -33.20422 0.00000 0.00000 0.00000 ; methylguanidinium ion
9046 9038 9039 9044 3 20.50160 0.00000 -20.50160 0.00000 0.00000 0.00000 ; imides
9047 9029 9030 9031 3 33.20422 0.00000 -33.20422 0.00000 0.00000 0.00000 ; methylguanidinium ion
9047 9029 9030 9037 3 30.28798 -4.81160 -25.47638 0.00000 0.00000 0.00000 ; imides
9049 5773 5772 5771 3 1.58992 4.76976 0.00000 -6.35968 0.00000 0.00000
9049 5773 5772 5774 3 1.58992 4.76976 0.00000 -6.35968 0.00000 0.00000
9049 5773 5772 5775 3 1.58992 4.76976 0.00000 -6.35968 0.00000 0.00000
9054 9055 9062 9063 3 30.28798 -4.81160 -25.47638 0.00000 0.00000 0.00000 ; imides
9054 9071 9072 9073 3 33.20422 0.00000 -33.20422 0.00000 0.00000 0.00000 ; methylguanidinium ion
9054 9071 9072 9076 3 20.50160 0.00000 -20.50160 0.00000 0.00000 0.00000 ; imides
9055 9054 9071 9070 3 30.28798 -4.81160 -25.47638 0.00000 0.00000 0.00000 ; imides
9055 9054 9071 9072 3 33.20422 0.00000 -33.20422 0.00000 0.00000 0.00000 ; methylguanidinium ion
9055 9062 9063 9064 3 33.20422 0.00000 -33.20422 0.00000 0.00000 0.00000 ; methylguanidinium ion
9055 9062 9063 9070 3 30.28798 -4.81160 -25.47638 0.00000 0.00000 0.00000 ; imides
9056 9055 9062 9063 3 33.20422 0.00000 -33.20422 0.00000 0.00000 0.00000 ; methylguanidinium ion
9057 8219 8218 8217 3 1.58992 4.76976 0.00000 -6.35968 0.00000 0.00000
9057 8219 8218 8220 3 1.58992 4.76976 0.00000 -6.35968 0.00000 0.00000
9057 8219 8218 8221 3 1.58992 4.76976 0.00000 -6.35968 0.00000 0.00000
9062 9055 9056 9057 3 33.20422 0.00000 -33.20422 0.00000 0.00000 0.00000 ; methylguanidinium ion
9062 9055 9056 9060 3 20.50160 0.00000 -20.50160 0.00000 0.00000 0.00000 ; imides
9062 9063 9070 9071 3 30.28798 -4.81160 -25.47638 0.00000 0.00000 0.00000 ; imides
9063 9070 9071 9054 3 30.28798 -4.81160 -25.47638 0.00000 0.00000 0.00000 ; imides
9063 9070 9071 9072 3 33.20422 0.00000 -33.20422 0.00000 0.00000 0.00000 ; methylguanidinium ion
9064 9063 9070 9071 3 33.20422 0.00000 -33.20422 0.00000 0.00000 0.00000 ; methylguanidinium ion
9065 718 717 716 3 1.58992 4.76976 0.00000 -6.35968 0.00000 0.00000
9065 718 717 719 3 1.58992 4.76976 0.00000 -6.35968 0.00000 0.00000
9065 718 717 720 3 1.58992 4.76976 0.00000 -6.35968 0.00000 0.00000
9070 9063 9064 9065 3 33.20422 0.00000 -33.20422 0.00000 0.00000 0.00000 ; methylguanidinium ion
9070 9063 9064 9068 3 20.50160 0.00000 -20.50160 0.00000 0.00000 0.00000 ; imides
9071 9054 9055 9056 3 33.20422 0.00000 -33.20422 0.00000 0.00000 0.00000 ; methylguanidinium ion
9071 9054 9055 9062 3 30.28798 -4.81160 -25.47638 0.00000 0.00000 0.00000 ; imides
9073 2337 2336 2335 3 1.58992 4.76976 0.00000 -6.35968 0.00000 0.00000
9073 2337 2336 2338 3 1.58992 4.76976 0.00000 -6.35968 0.00000 0.00000
9073 2337 2336 2339 3 1.58992 4.76976 0.00000 -6.35968 0.00000 0.00000
9078 9079 9086 9087 3 30.28798 -4.81160 -25.47638 0.00000 0.00000 0.00000 ; imides
9078 9095 9096 9097 3 33.20422 0.00000 -33.20422 0.00000 0.00000 0.00000 ; methylguanidinium ion
9078 9095 9096 9101 3 20.50160 0.00000 -20.50160 0.00000 0.00000 0.00000 ; imides
9079 9078 9095 9094 3 30.28798 -4.81160 -25.47638 0.00000 0.00000 0.00000 ; imides
9079 9078 9095 9096 3 33.20422 0.00000 -33.20422 0.00000 0.00000 0.00000 ; methylguanidinium ion
9079 9086 9087 9088 3 33.20422 0.00000 -33.20422 0.00000 0.00000 0.00000 ; methylguanidinium ion
9079 9086 9087 9094 3 30.28798 -4.81160 -25.47638 0.00000 0.00000 0.00000 ; imides
9080 9079 9086 9087 3 33.20422 0.00000 -33.20422 0.00000 0.00000 0.00000 ; methylguanidinium ion
9081 1727 1726 1725 3 1.58992 4.76976 0.00000 -6.35968 0.00000 0.00000
9081 1727 1726 1728 3 1.58992 4.76976 0.00000 -6.35968 0.00000 0.00000
9081 1727 1726 1729 3 1.58992 4.76976 0.00000 -6.35968 0.00000 0.00000
9086 9079 9080 9081 3 33.20422 0.00000 -33.20422 0.00000 0.00000 0.00000 ; methylguanidinium ion
9086 9079 9080 9084 3 20.50160 0.00000 -20.50160 0.00000 0.00000 0.00000 ; imides
9086 9087 9094 9095 3 30.28798 -4.81160 -25.47638 0.00000 0.00000 0.00000 ; imides
9087 9094 9095 9078 3 30.28798 -4.81160 -25.47638 0.00000 0.00000 0.00000 ; imides
9087 9094 9095 9096 3 33.20422 0.00000 -33.20422 0.00000 0.00000 0.00000 ; methylguanidinium ion
9088 9087 9094 9095 3 33.20422 0.00000 -33.20422 0.00000 0.00000 0.00000 ; methylguanidinium ion
9089 6773 6772 6771 3 1.58992 4.76976 0.00000 -6.35968 0.00000 0.00000
9089 6773 6772 6774 3 1.58992 4.76976 0.00000 -6.35968 0.00000 0.00000
9089 6773 6772 6775 3 1.58992 4.76976 0.00000 -6.35968 0.00000 0.00000
9094 9087 9088 9089 3 33.20422 0.00000 -33.20422 0.00000 0.00000 0.00000 ; methylguanidinium ion
9094 9087 9088 9092 3 20.50160 0.00000 -20.50160 0.00000 0.00000 0.00000 ; imides
9095 9078 9079 9080 3 33.20422 0.00000 -33.20422 0.00000 0.00000 0.00000 ; methylguanidinium ion
9095 9078 9079 9086 3 30.28798 -4.81160 -25.47638 0.00000 0.00000 0.00000 ; imides
9097 9098 12772 12771 3 1.58992 4.76976 0.00000 -6.35968 0.00000 0.00000
9097 9098 12772 12773 3 1.58992 4.76976 0.00000 -6.35968 0.00000 0.00000
9097 9098 12772 12774 3 1.58992 4.76976 0.00000 -6.35968 0.00000 0.00000
9098 12772 12771 12770 3 1.78866 3.49154 0.53555 -5.81576 0.00000 0.00000
9098 12772 12771 12775 3 -1.26775 3.02085 1.74473 -3.49782 0.00000 0.00000
9103 9104 9111 9112 3 30.28798 -4.81160 -25.47638 0.00000 0.00000 0.00000 ; imides
9103 9120 9121 9122 3 33.20422 0.00000 -33.20422 0.00000 0.00000 0.00000 ; methylguanidinium ion
9103 9120 9121 9126 3 20.50160 0.00000 -20.50160 0.00000 0.00000 0.00000 ; imides
9104 9103 9120 9119 3 30.28798 -4.81160 -25.47638 0.00000 0.00000 0.00000 ; imides
9104 9103 9120 9121 3 33.20422 0.00000 -33.20422 0.00000 0.00000 0.00000 ; methylguanidinium ion
9104 9111 9112 9113 3 33.20422 0.00000 -33.20422 0.00000 0.00000 0.00000 ; methylguanidinium ion
9104 9111 9112 9119 3 30.28798 -4.81160 -25.47638 0.00000 0.00000 0.00000 ; imides
9105 9104 9111 9112 3 33.20422 0.00000 -33.20422 0.00000 0.00000 0.00000 ; methylguanidinium ion
9106 3410 3409 3408 3 1.58992 4.76976 0.00000 -6.35968 0.00000 0.00000
9106 3410 3409 3411 3 1.58992 4.76976 0.00000 -6.35968 0.00000 0.00000
9106 3410 3409 3412 3 1.58992 4.76976 0.00000 -6.35968 0.00000 0.00000
9111 9104 9105 9106 3 33.20422 0.00000 -33.20422 0.00000 0.00000 0.00000 ; methylguanidinium ion
9111 9104 9105 9109 3 20.50160 0.00000 -20.50160 0.00000 0.00000 0.00000 ; imides
9111 9112 9119 9120 3 30.28798 -4.81160 -25.47638 0.00000 0.00000 0.00000 ; imides
9112 9119 9120 9103 3 30.28798 -4.81160 -25.47638 0.00000 0.00000 0.00000 ; imides
9112 9119 9120 9121 3 33.20422 0.00000 -33.20422 0.00000 0.00000 0.00000 ; methylguanidinium ion
9113 9112 9119 9120 3 33.20422 0.00000 -33.20422 0.00000 0.00000 0.00000 ; methylguanidinium ion
9114 2328 2327 2326 3 1.58992 4.76976 0.00000 -6.35968 0.00000 0.00000
9114 2328 2327 2329 3 1.58992 4.76976 0.00000 -6.35968 0.00000 0.00000
9114 2328 2327 2330 3 1.58992 4.76976 0.00000 -6.35968 0.00000 0.00000
9119 9112 9113 9114 3 33.20422 0.00000 -33.20422 0.00000 0.00000 0.00000 ; methylguanidinium ion
9119 9112 9113 9117 3 20.50160 0.00000 -20.50160 0.00000 0.00000 0.00000 ; imides
9120 9103 9104 9105 3 33.20422 0.00000 -33.20422 0.00000 0.00000 0.00000 ; methylguanidinium ion
9120 9103 9104 9111 3 30.28798 -4.81160 -25.47638 0.00000 0.00000 0.00000 ; imides
9122 9123 11956 11955 3 1.58992 4.76976 0.00000 -6.35968 0.00000 0.00000
9122 9123 11956 11957 3 1.58992 4.76976 0.00000 -6.35968 0.00000 0.00000
9122 9123 11956 11958 3 1.58992 4.76976 0.00000 -6.35968 0.00000 0.00000
9123 11956 11955 11954 3 1.78866 3.49154 0.53555 -5.81576 0.00000 0.00000
9123 11956 11955 11959 3 -1.26775 3.02085 1.74473 -3.49782 0.00000 0.00000
9128 9129 9136 9137 3 30.28798 -4.81160 -25.47638 0.00000 0.00000 0.00000 ; imides
9128 9147 9148 9149 3 33.20422 0.00000 -33.20422 0.00000 0.00000 0.00000 ; methylguanidinium ion
9128 9147 9148 9154 3 20.50160 0.00000 -20.50160 0.00000 0.00000 0.00000 ; imides
9129 9128 9147 9146 3 30.28798 -4.81160 -25.47638 0.00000 0.00000 0.00000 ; imides
9129 9128 9147 9148 3 33.20422 0.00000 -33.20422 0.00000 0.00000 0.00000 ; methylguanidinium ion
9129 9136 9137 9138 3 33.20422 0.00000 -33.20422 0.00000 0.00000 0.00000 ; methylguanidinium ion
9129 9136 9137 9146 3 30.28798 -4.81160 -25.47638 0.00000 0.00000 0.00000 ; imides
9130 9129 9136 9137 3 33.20422 0.00000 -33.20422 0.00000 0.00000 0.00000 ; methylguanidinium ion
9131 5564 5563 5562 3 1.58992 4.76976 0.00000 -6.35968 0.00000 0.00000
9131 5564 5563 5565 3 1.58992 4.76976 0.00000 -6.35968 0.00000 0.00000
9131 5564 5563 5566 3 1.58992 4.76976 0.00000 -6.35968 0.00000 0.00000
9136 9129 9130 9131 3 33.20422 0.00000 -33.20422 0.00000 0.00000 0.00000 ; methylguanidinium ion
9136 9129 9130 9134 3 20.50160 0.00000 -20.50160 0.00000 0.00000 0.00000 ; imides
9136 9137 9146 9147 3 30.28798 -4.81160 -25.47638 0.00000 0.00000 0.00000 ; imides
9137 9146 9147 9128 3 30.28798 -4.81160 -25.47638 0.00000 0.00000 0.00000 ; imides
9137 9146 9147 9148 3 33.20422 0.00000 -33.20422 0.00000 0.00000 0.00000 ; methylguanidinium ion
9138 9137 9146 9147 3 33.20422 0.00000 -33.20422 0.00000 0.00000 0.00000 ; methylguanidinium ion
9146 9137 9138 9139 3 33.20422 0.00000 -33.20422 0.00000 0.00000 0.00000 ; methylguanidinium ion
9146 9137 9138 9144 3 20.50160 0.00000 -20.50160 0.00000 0.00000 0.00000 ; imides
9147 9128 9129 9130 3 33.20422 0.00000 -33.20422 0.00000 0.00000 0.00000 ; methylguanidinium ion
9147 9128 9129 9136 3 30.28798 -4.81160 -25.47638 0.00000 0.00000 0.00000 ; imides
9156 9157 9165 9166 3 30.28798 -4.81160 -25.47638 0.00000 0.00000 0.00000 ; imides
9156 9174 9175 9176 3 33.20422 0.00000 -33.20422 0.00000 0.00000 0.00000 ; methylguanidinium ion
9156 9174 9175 9179 3 20.50160 0.00000 -20.50160 0.00000 0.00000 0.00000 ; imides
9157 9156 9174 9173 3 30.28798 -4.81160 -25.47638 0.00000 0.00000 0.00000 ; imides
9157 9156 9174 9175 3 33.20422 0.00000 -33.20422 0.00000 0.00000 0.00000 ; methylguanidinium ion
9157 9165 9166 9167 3 33.20422 0.00000 -33.20422 0.00000 0.00000 0.00000 ; methylguanidinium ion
9157 9165 9166 9173 3 30.28798 -4.81160 -25.47638 0.00000 0.00000 0.00000 ; imides
9158 9157 9165 9166 3 33.20422 0.00000 -33.20422 0.00000 0.00000 0.00000 ; methylguanidinium ion
9159 9160 12502 12501 3 1.58992 4.76976 0.00000 -6.35968 0.00000 0.00000
9159 9160 12502 12503 3 1.58992 4.76976 0.00000 -6.35968 0.00000 0.00000
9159 9160 12502 12504 3 1.58992 4.76976 0.00000 -6.35968 0.00000 0.00000
9160 12502 12501 12500 3 1.78866 3.49154 0.53555 -5.81576 0.00000 0.00000
9160 12502 12501 12505 3 -1.26775 3.02085 1.74473 -3.49782 0.00000 0.00000
9165 9157 9158 9159 3 33.20422 0.00000 -33.20422 0.00000 0.00000 0.00000 ; methylguanidinium ion
9165 9157 9158 9163 3 20.50160 0.00000 -20.50160 0.00000 0.00000 0.00000 ; imides
9165 9166 9173 9174 3 30.28798 -4.81160 -25.47638 0.00000 0.00000 0.00000 ; imides
9166 9173 9174 9156 3 30.28798 -4.81160 -25.47638 0.00000 0.00000 0.00000 ; imides
9166 9173 9174 9175 3 33.20422 0.00000 -33.20422 0.00000 0.00000 0.00000 ; methylguanidinium ion
9167 9166 9173 9174 3 33.20422 0.00000 -33.20422 0.00000 0.00000 0.00000 ; methylguanidinium ion
9168 4639 4638 4637 3 1.58992 4.76976 0.00000 -6.35968 0.00000 0.00000
9168 4639 4638 4640 3 1.58992 4.76976 0.00000 -6.35968 0.00000 0.00000
9168 4639 4638 4641 3 1.58992 4.76976 0.00000 -6.35968 0.00000 0.00000
9173 9166 9167 9168 3 33.20422 0.00000 -33.20422 0.00000 0.00000 0.00000 ; methylguanidinium ion
9173 9166 9167 9171 3 20.50160 0.00000 -20.50160 0.00000 0.00000 0.00000 ; imides
9174 9156 9157 9158 3 33.20422 0.00000 -33.20422 0.00000 0.00000 0.00000 ; methylguanidinium ion
9174 9156 9157 9165 3 30.28798 -4.81160 -25.47638 0.00000 0.00000 0.00000 ; imides
9176 6162 6161 6160 3 1.58992 4.76976 0.00000 -6.35968 0.00000 0.00000
9176 6162 6161 6163 3 1.58992 4.76976 0.00000 -6.35968 0.00000 0.00000
9176 6162 6161 6164 3 1.58992 4.76976 0.00000 -6.35968 0.00000 0.00000
9181 9182 9189 9190 3 30.28798 -4.81160 -25.47638 0.00000 0.00000 0.00000 ; imides
9181 9198 9199 9200 3 33.20422 0.00000 -33.20422 0.00000 0.00000 0.00000 ; methylguanidinium ion
9181 9198 9199 9203 3 20.50160 0.00000 -20.50160 0.00000 0.00000 0.00000 ; imides
9182 9181 9198 9197 3 30.28798 -4.81160 -25.47638 0.00000 0.00000 0.00000 ; imides
9182 9181 9198 9199 3 33.20422 0.00000 -33.20422 0.00000 0.00000 0.00000 ; methylguanidinium ion
9182 9189 9190 9191 3 33.20422 0.00000 -33.20422 0.00000 0.00000 0.00000 ; methylguanidinium ion
9182 9189 9190 9197 3 30.28798 -4.81160 -25.47638 0.00000 0.00000 0.00000 ; imides
9183 9182 9189 9190 3 33.20422 0.00000 -33.20422 0.00000 0.00000 0.00000 ; methylguanidinium ion
9184 1234 1233 1232 3 1.58992 4.76976 0.00000 -6.35968 0.00000 0.00000
9184 1234 1233 1235 3 1.58992 4.76976 0.00000 -6.35968 0.00000 0.00000
9184 1234 1233 1236 3 1.58992 4.76976 0.00000 -6.35968 0.00000 0.00000
9189 9182 9183 9184 3 33.20422 0.00000 -33.20422 0.00000 0.00000 0.00000 ; methylguanidinium ion
9189 9182 9183 9187 3 20.50160 0.00000 -20.50160 0.00000 0.00000 0.00000 ; imides
9189 9190 9197 9198 3 30.28798 -4.81160 -25.47638 0.00000 0.00000 0.00000 ; imides
9190 9197 9198 9181 3 30.28798 -4.81160 -25.47638 0.00000 0.00000 0.00000 ; imides
9190 9197 9198 9199 3 33.20422 0.00000 -33.20422 0.00000 0.00000 0.00000 ; methylguanidinium ion
9191 9190 9197 9198 3 33.20422 0.00000 -33.20422 0.00000 0.00000 0.00000 ; methylguanidinium ion
9192 2542 2541 2540 3 1.58992 4.76976 0.00000 -6.35968 0.00000 0.00000
9192 2542 2541 2543 3 1.58992 4.76976 0.00000 -6.35968 0.00000 0.00000
9192 2542 2541 2544 3 1.58992 4.76976 0.00000 -6.35968 0.00000 0.00000
9197 9190 9191 9192 3 33.20422 0.00000 -33.20422 0.00000 0.00000 0.00000 ; methylguanidinium ion
9197 9190 9191 9195 3 20.50160 0.00000 -20.50160 0.00000 0.00000 0.00000 ; imides
9198 9181 9182 9183 3 33.20422 0.00000 -33.20422 0.00000 0.00000 0.00000 ; methylguanidinium ion
9198 9181 9182 9189 3 30.28798 -4.81160 -25.47638 0.00000 0.00000 0.00000 ; imides
9200 4826 4825 4824 3 1.58992 4.76976 0.00000 -6.35968 0.00000 0.00000
9200 4826 4825 4827 3 1.58992 4.76976 0.00000 -6.35968 0.00000 0.00000
9200 4826 4825 4828 3 1.58992 4.76976 0.00000 -6.35968 0.00000 0.00000
9205 9206 9214 9215 3 30.28798 -4.81160 -25.47638 0.00000 0.00000 0.00000 ; imides
9205 9223 9224 9225 3 33.20422 0.00000 -33.20422 0.00000 0.00000 0.00000 ; methylguanidinium ion
9205 9223 9224 9228 3 20.50160 0.00000 -20.50160 0.00000 0.00000 0.00000 ; imides
9206 9205 9223 9222 3 30.28798 -4.81160 -25.47638 0.00000 0.00000 0.00000 ; imides
9206 9205 9223 9224 3 33.20422 0.00000 -33.20422 0.00000 0.00000 0.00000 ; methylguanidinium ion
9206 9214 9215 9216 3 33.20422 0.00000 -33.20422 0.00000 0.00000 0.00000 ; methylguanidinium ion
9206 9214 9215 9222 3 30.28798 -4.81160 -25.47638 0.00000 0.00000 0.00000 ; imides
9207 9206 9214 9215 3 33.20422 0.00000 -33.20422 0.00000 0.00000 0.00000 ; methylguanidinium ion
9208 9209 11719 11718 3 1.58992 4.76976 0.00000 -6.35968 0.00000 0.00000
9208 9209 11719 11720 3 1.58992 4.76976 0.00000 -6.35968 0.00000 0.00000
9208 9209 11719 11721 3 1.58992 4.76976 0.00000 -6.35968 0.00000 0.00000
9209 11719 11718 11717 3 1.78866 3.49154 0.53555 -5.81576 0.00000 0.00000
9209 11719 11718 11722 3 -1.26775 3.02085 1.74473 -3.49782 0.00000 0.00000
9214 9206 9207 9208 3 33.20422 0.00000 -33.20422 0.00000 0.00000 0.00000 ; methylguanidinium ion
9214 9206 9207 9212 3 20.50160 0.00000 -20.50160 0.00000 0.00000 0.00000 ; imides
9214 9215 9222 9223 3 30.28798 -4.81160 -25.47638 0.00000 0.00000 0.00000 ; imides
9215 9222 9223 9205 3 30.28798 -4.81160 -25.47638 0.00000 0.00000 0.00000 ; imides
9215 9222 9223 9224 3 33.20422 0.00000 -33.20422 0.00000 0.00000 0.00000 ; methylguanidinium ion
9216 9215 9222 9223 3 33.20422 0.00000 -33.20422 0.00000 0.00000 0.00000 ; methylguanidinium ion
9217 3790 3789 3788 3 1.58992 4.76976 0.00000 -6.35968 0.00000 0.00000
9217 3790 3789 3791 3 1.58992 4.76976 0.00000 -6.35968 0.00000 0.00000
9217 3790 3789 3792 3 1.58992 4.76976 0.00000 -6.35968 0.00000 0.00000
9222 9215 9216 9217 3 33.20422 0.00000 -33.20422 0.00000 0.00000 0.00000 ; methylguanidinium ion
9222 9215 9216 9220 3 20.50160 0.00000 -20.50160 0.00000 0.00000 0.00000 ; imides
9223 9205 9206 9207 3 33.20422 0.00000 -33.20422 0.00000 0.00000 0.00000 ; methylguanidinium ion
9223 9205 9206 9214 3 30.28798 -4.81160 -25.47638 0.00000 0.00000 0.00000 ; imides
9225 853 852 851 3 1.58992 4.76976 0.00000 -6.35968 0.00000 0.00000
9225 853 852 854 3 1.58992 4.76976 0.00000 -6.35968 0.00000 0.00000
9225 853 852 855 3 1.58992 4.76976 0.00000 -6.35968 0.00000 0.00000
9230 9231 9238 9239 3 30.28798 -4.81160 -25.47638 0.00000 0.00000 0.00000 ; imides
9230 9248 9249 9250 3 33.20422 0.00000 -33.20422 0.00000 0.00000 0.00000 ; methylguanidinium ion
9230 9248 9249 9253 3 20.50160 0.00000 -20.50160 0.00000 0.00000 0.00000 ; imides
9231 9230 9248 9247 3 30.28798 -4.81160 -25.47638 0.00000 0.00000 0.00000 ; imides
9231 9230 9248 9249 3 33.20422 0.00000 -33.20422 0.00000 0.00000 0.00000 ; methylguanidinium ion
9231 9238 9239 9240 3 33.20422 0.00000 -33.20422 0.00000 0.00000 0.00000 ; methylguanidinium ion
9231 9238 9239 9247 3 30.28798 -4.81160 -25.47638 0.00000 0.00000 0.00000 ; imides
9232 9231 9238 9239 3 33.20422 0.00000 -33.20422 0.00000 0.00000 0.00000 ; methylguanidinium ion
9233 5269 5268 5267 3 1.58992 4.76976 0.00000 -6.35968 0.00000 0.00000
9233 5269 5268 5270 3 1.58992 4.76976 0.00000 -6.35968 0.00000 0.00000
9233 5269 5268 5271 3 1.58992 4.76976 0.00000 -6.35968 0.00000 0.00000
9238 9231 9232 9233 3 33.20422 0.00000 -33.20422 0.00000 0.00000 0.00000 ; methylguanidinium ion
9238 9231 9232 9236 3 20.50160 0.00000 -20.50160 0.00000 0.00000 0.00000 ; imides
9238 9239 9247 9248 3 30.28798 -4.81160 -25.47638 0.00000 0.00000 0.00000 ; imides
9239 9247 9248 9230 3 30.28798 -4.81160 -25.47638 0.00000 0.00000 0.00000 ; imides
9239 9247 9248 9249 3 33.20422 0.00000 -33.20422 0.00000 0.00000 0.00000 ; methylguanidinium ion
9240 9239 9247 9248 3 33.20422 0.00000 -33.20422 0.00000 0.00000 0.00000 ; methylguanidinium ion
9241 9242 10452 10451 3 1.58992 4.76976 0.00000 -6.35968 0.00000 0.00000
9241 9242 10452 10453 3 1.58992 4.76976 0.00000 -6.35968 0.00000 0.00000
9241 9242 10452 10454 3 1.58992 4.76976 0.00000 -6.35968 0.00000 0.00000
9242 10452 10451 10450 3 1.78866 3.49154 0.53555 -5.81576 0.00000 0.00000
9242 10452 10451 10455 3 -1.26775 3.02085 1.74473 -3.49782 0.00000 0.00000
9247 9239 9240 9241 3 33.20422 0.00000 -33.20422 0.00000 0.00000 0.00000 ; methylguanidinium ion
9247 9239 9240 9245 3 20.50160 0.00000 -20.50160 0.00000 0.00000 0.00000 ; imides
9248 9230 9231 9232 3 33.20422 0.00000 -33.20422 0.00000 0.00000 0.00000 ; methylguanidinium ion
9248 9230 9231 9238 3 30.28798 -4.81160 -25.47638 0.00000 0.00000 0.00000 ; imides
9250 7858 7857 7856 3 1.58992 4.76976 0.00000 -6.35968 0.00000 0.00000
9250 7858 7857 7859 3 1.58992 4.76976 0.00000 -6.35968 0.00000 0.00000
9250 7858 7857 7860 3 1.58992 4.76976 0.00000 -6.35968 0.00000 0.00000
9255 9256 9263 9264 3 30.28798 -4.81160 -25.47638 0.00000 0.00000 0.00000 ; imides
9255 9272 9273 9274 3 33.20422 0.00000 -33.20422 0.00000 0.00000 0.00000 ; methylguanidinium ion
9255 9272 9273 9277 3 20.50160 0.00000 -20.50160 0.00000 0.00000 0.00000 ; imides
9256 9255 9272 9271 3 30.28798 -4.81160 -25.47638 0.00000 0.00000 0.00000 ; imides
9256 9255 9272 9273 3 33.20422 0.00000 -33.20422 0.00000 0.00000 0.00000 ; methylguanidinium ion
9256 9263 9264 9265 3 33.20422 0.00000 -33.20422 0.00000 0.00000 0.00000 ; methylguanidinium ion
9256 9263 9264 9271 3 30.28798 -4.81160 -25.47638 0.00000 0.00000 0.00000 ; imides
9257 9256 9263 9264 3 33.20422 0.00000 -33.20422 0.00000 0.00000 0.00000 ; methylguanidinium ion
9258 4055 4054 4053 3 1.58992 4.76976 0.00000 -6.35968 0.00000 0.00000
9258 4055 4054 4056 3 1.58992 4.76976 0.00000 -6.35968 0.00000 0.00000
9258 4055 4054 4057 3 1.58992 4.76976 0.00000 -6.35968 0.00000 0.00000
9263 9256 9257 9258 3 33.20422 0.00000 -33.20422 0.00000 0.00000 0.00000 ; methylguanidinium ion
9263 9256 9257 9261 3 20.50160 0.00000 -20.50160 0.00000 0.00000 0.00000 ; imides
9263 9264 9271 9272 3 30.28798 -4.81160 -25.47638 0.00000 0.00000 0.00000 ; imides
9264 9271 9272 9255 3 30.28798 -4.81160 -25.47638 0.00000 0.00000 0.00000 ; imides
9264 9271 9272 9273 3 33.20422 0.00000 -33.20422 0.00000 0.00000 0.00000 ; methylguanidinium ion
9265 9264 9271 9272 3 33.20422 0.00000 -33.20422 0.00000 0.00000 0.00000 ; methylguanidinium ion
9266 1541 1540 1539 3 1.58992 4.76976 0.00000 -6.35968 0.00000 0.00000
9266 1541 1540 1542 3 1.58992 4.76976 0.00000 -6.35968 0.00000 0.00000
9266 1541 1540 1543 3 1.58992 4.76976 0.00000 -6.35968 0.00000 0.00000
9271 9264 9265 9266 3 33.20422 0.00000 -33.20422 0.00000 0.00000 0.00000 ; methylguanidinium ion
9271 9264 9265 9269 3 20.50160 0.00000 -20.50160 0.00000 0.00000 0.00000 ; imides
9272 9255 9256 9257 3 33.20422 0.00000 -33.20422 0.00000 0.00000 0.00000 ; methylguanidinium ion
9272 9255 9256 9263 3 30.28798 -4.81160 -25.47638 0.00000 0.00000 0.00000 ; imides
9274 2625 2624 2623 3 1.58992 4.76976 0.00000 -6.35968 0.00000 0.00000
9274 2625 2624 2626 3 1.58992 4.76976 0.00000 -6.35968 0.00000 0.00000
9274 2625 2624 2627 3 1.58992 4.76976 0.00000 -6.35968 0.00000 0.00000
9279 9280 9287 9288 3 30.28798 -4.81160 -25.47638 0.00000 0.00000 0.00000 ; imides
9279 9296 9297 9298 3 33.20422 0.00000 -33.20422 0.00000 0.00000 0.00000 ; methylguanidinium ion
9279 9296 9297 9303 3 20.50160 0.00000 -20.50160 0.00000 0.00000 0.00000 ; imides
9280 9279 9296 9295 3 30.28798 -4.81160 -25.47638 0.00000 0.00000 0.00000 ; imides
9280 9279 9296 9297 3 33.20422 0.00000 -33.20422 0.00000 0.00000 0.00000 ; methylguanidinium ion
9280 9287 9288 9289 3 33.20422 0.00000 -33.20422 0.00000 0.00000 0.00000 ; methylguanidinium ion
9280 9287 9288 9295 3 30.28798 -4.81160 -25.47638 0.00000 0.00000 0.00000 ; imides
9281 9280 9287 9288 3 33.20422 0.00000 -33.20422 0.00000 0.00000 0.00000 ; methylguanidinium ion
9282 3335 3334 3333 3 1.58992 4.76976 0.00000 -6.35968 0.00000 0.00000
9282 3335 3334 3336 3 1.58992 4.76976 0.00000 -6.35968 0.00000 0.00000
9282 3335 3334 3337 3 1.58992 4.76976 0.00000 -6.35968 0.00000 0.00000
9287 9280 9281 9282 3 33.20422 0.00000 -33.20422 0.00000 0.00000 0.00000 ; methylguanidinium ion
9287 9280 9281 9285 3 20.50160 0.00000 -20.50160 0.00000 0.00000 0.00000 ; imides
9287 9288 9295 9296 3 30.28798 -4.81160 -25.47638 0.00000 0.00000 0.00000 ; imides
9288 9295 9296 9279 3 30.28798 -4.81160 -25.47638 0.00000 0.00000 0.00000 ; imides
9288 9295 9296 9297 3 33.20422 0.00000 -33.20422 0.00000 0.00000 0.00000 ; methylguanidinium ion
9289 9288 9295 9296 3 33.20422 0.00000 -33.20422 0.00000 0.00000 0.00000 ; methylguanidinium ion
9290 3291 3290 3289 3 1.58992 4.76976 0.00000 -6.35968 0.00000 0.00000
9290 3291 3290 3292 3 1.58992 4.76976 0.00000 -6.35968 0.00000 0.00000
9290 3291 3290 3293 3 1.58992 4.76976 0.00000 -6.35968 0.00000 0.00000
9295 9288 9289 9290 3 33.20422 0.00000 -33.20422 0.00000 0.00000 0.00000 ; methylguanidinium ion
9295 9288 9289 9293 3 20.50160 0.00000 -20.50160 0.00000 0.00000 0.00000 ; imides
9296 9279 9280 9281 3 33.20422 0.00000 -33.20422 0.00000 0.00000 0.00000 ; methylguanidinium ion
9296 9279 9280 9287 3 30.28798 -4.81160 -25.47638 0.00000 0.00000 0.00000 ; imides
9305 9306 9313 9314 3 30.28798 -4.81160 -25.47638 0.00000 0.00000 0.00000 ; imides
9305 9323 9324 9325 3 33.20422 0.00000 -33.20422 0.00000 0.00000 0.00000 ; methylguanidinium ion
9305 9323 9324 9329 3 20.50160 0.00000 -20.50160 0.00000 0.00000 0.00000 ; imides
9306 9305 9323 9322 3 30.28798 -4.81160 -25.47638 0.00000 0.00000 0.00000 ; imides
9306 9305 9323 9324 3 33.20422 0.00000 -33.20422 0.00000 0.00000 0.00000 ; methylguanidinium ion
9306 9313 9314 9315 3 33.20422 0.00000 -33.20422 0.00000 0.00000 0.00000 ; methylguanidinium ion
9306 9313 9314 9322 3 30.28798 -4.81160 -25.47638 0.00000 0.00000 0.00000 ; imides
9307 9306 9313 9314 3 33.20422 0.00000 -33.20422 0.00000 0.00000 0.00000 ; methylguanidinium ion
9308 8423 8422 8421 3 1.58992 4.76976 0.00000 -6.35968 0.00000 0.00000
9308 8423 8422 8424 3 1.58992 4.76976 0.00000 -6.35968 0.00000 0.00000
9308 8423 8422 8425 3 1.58992 4.76976 0.00000 -6.35968 0.00000 0.00000
9313 9306 9307 9308 3 33.20422 0.00000 -33.20422 0.00000 0.00000 0.00000 ; methylguanidinium ion
9313 9306 9307 9311 3 20.50160 0.00000 -20.50160 0.00000 0.00000 0.00000 ; imides
9313 9314 9322 9323 3 30.28798 -4.81160 -25.47638 0.00000 0.00000 0.00000 ; imides
9314 9322 9323 9305 3 30.28798 -4.81160 -25.47638 0.00000 0.00000 0.00000 ; imides
9314 9322 9323 9324 3 33.20422 0.00000 -33.20422 0.00000 0.00000 0.00000 ; methylguanidinium ion
9315 9314 9322 9323 3 33.20422 0.00000 -33.20422 0.00000 0.00000 0.00000 ; methylguanidinium ion
9316 9317 9970 9969 3 1.58992 4.76976 0.00000 -6.35968 0.00000 0.00000
9316 9317 9970 9971 3 1.58992 4.76976 0.00000 -6.35968 0.00000 0.00000
9316 9317 9970 9972 3 1.58992 4.76976 0.00000 -6.35968 0.00000 0.00000
9317 9970 9969 9968 3 1.78866 3.49154 0.53555 -5.81576 0.00000 0.00000
9317 9970 9969 9973 3 -1.26775 3.02085 1.74473 -3.49782 0.00000 0.00000
9322 9314 9315 9316 3 33.20422 0.00000 -33.20422 0.00000 0.00000 0.00000 ; methylguanidinium ion
9322 9314 9315 9320 3 20.50160 0.00000 -20.50160 0.00000 0.00000 0.00000 ; imides
9323 9305 9306 9307 3 33.20422 0.00000 -33.20422 0.00000 0.00000 0.00000 ; methylguanidinium ion
9323 9305 9306 9313 3 30.28798 -4.81160 -25.47638 0.00000 0.00000 0.00000 ; imides
9325 9326 9672 9671 3 1.58992 4.76976 0.00000 -6.35968 0.00000 0.00000
9325 9326 9672 9673 3 1.58992 4.76976 0.00000 -6.35968 0.00000 0.00000
9325 9326 9672 9674 3 1.58992 4.76976 0.00000 -6.35968 0.00000 0.00000
9326 9672 9671 9670 3 1.78866 3.49154 0.53555 -5.81576 0.00000 0.00000
9326 9672 9671 9675 3 -1.26775 3.02085 1.74473 -3.49782 0.00000 0.00000
9331 9332 9339 9340 3 30.28798 -4.81160 -25.47638 0.00000 0.00000 0.00000 ; imides
9331 9348 9349 9350 3 33.20422 0.00000 -33.20422 0.00000 0.00000 0.00000 ; methylguanidinium ion
9331 9348 9349 9354 3 20.50160 0.00000 -20.50160 0.00000 0.00000 0.00000 ; imides
9332 9331 9348 9347 3 30.28798 -4.81160 -25.47638 0.00000 0.00000 0.00000 ; imides
9332 9331 9348 9349 3 33.20422 0.00000 -33.20422 0.00000 0.00000 0.00000 ; methylguanidinium ion
9332 9339 9340 9341 3 33.20422 0.00000 -33.20422 0.00000 0.00000 0.00000 ; methylguanidinium ion
9332 9339 9340 9347 3 30.28798 -4.81160 -25.47638 0.00000 0.00000 0.00000 ; imides
9333 9332 9339 9340 3 33.20422 0.00000 -33.20422 0.00000 0.00000 0.00000 ; methylguanidinium ion
9334 4099 4098 4097 3 1.58992 4.76976 0.00000 -6.35968 0.00000 0.00000
9334 4099 4098 4100 3 1.58992 4.76976 0.00000 -6.35968 0.00000 0.00000
9334 4099 4098 4101 3 1.58992 4.76976 0.00000 -6.35968 0.00000 0.00000
9339 9332 9333 9334 3 33.20422 0.00000 -33.20422 0.00000 0.00000 0.00000 ; methylguanidinium ion
9339 9332 9333 9337 3 20.50160 0.00000 -20.50160 0.00000 0.00000 0.00000 ; imides
9339 9340 9347 9348 3 30.28798 -4.81160 -25.47638 0.00000 0.00000 0.00000 ; imides
9340 9347 9348 9331 3 30.28798 -4.81160 -25.47638 0.00000 0.00000 0.00000 ; imides
9340 9347 9348 9349 3 33.20422 0.00000 -33.20422 0.00000 0.00000 0.00000 ; methylguanidinium ion
9341 9340 9347 9348 3 33.20422 0.00000 -33.20422 0.00000 0.00000 0.00000 ; methylguanidinium ion
9342 144 143 142 3 1.58992 4.76976 0.00000 -6.35968 0.00000 0.00000
9342 144 143 145 3 1.58992 4.76976 0.00000 -6.35968 0.00000 0.00000
9342 144 143 146 3 1.58992 4.76976 0.00000 -6.35968 0.00000 0.00000
9347 9340 9341 9342 3 33.20422 0.00000 -33.20422 0.00000 0.00000 0.00000 ; methylguanidinium ion
9347 9340 9341 9345 3 20.50160 0.00000 -20.50160 0.00000 0.00000 0.00000 ; imides
9348 9331 9332 9333 3 33.20422 0.00000 -33.20422 0.00000 0.00000 0.00000 ; methylguanidinium ion
9348 9331 9332 9339 3 30.28798 -4.81160 -25.47638 0.00000 0.00000 0.00000 ; imides
9350 9351 11328 11327 3 1.58992 4.76976 0.00000 -6.35968 0.00000 0.00000
9350 9351 11328 11329 3 1.58992 4.76976 0.00000 -6.35968 0.00000 0.00000
9350 9351 11328 11330 3 1.58992 4.76976 0.00000 -6.35968 0.00000 0.00000
9351 11328 11327 11326 3 1.78866 3.49154 0.53555 -5.81576 0.00000 0.00000
9351 11328 11327 11331 3 -1.26775 3.02085 1.74473 -3.49782 0.00000 0.00000
9356 9357 9364 9365 3 30.28798 -4.81160 -25.47638 0.00000 0.00000 0.00000 ; imides
9356 9373 9374 9375 3 33.20422 0.00000 -33.20422 0.00000 0.00000 0.00000 ; methylguanidinium ion
9356 9373 9374 9380 3 20.50160 0.00000 -20.50160 0.00000 0.00000 0.00000 ; imides
9357 9356 9373 9372 3 30.28798 -4.81160 -25.47638 0.00000 0.00000 0.00000 ; imides
9357 9356 9373 9374 3 33.20422 0.00000 -33.20422 0.00000 0.00000 0.00000 ; methylguanidinium ion
9357 9364 9365 9366 3 33.20422 0.00000 -33.20422 0.00000 0.00000 0.00000 ; methylguanidinium ion
9357 9364 9365 9372 3 30.28798 -4.81160 -25.47638 0.00000 0.00000 0.00000 ; imides
9358 9357 9364 9365 3 33.20422 0.00000 -33.20422 0.00000 0.00000 0.00000 ; methylguanidinium ion
9359 6207 6206 6205 3 1.58992 4.76976 0.00000 -6.35968 0.00000 0.00000
9359 6207 6206 6208 3 1.58992 4.76976 0.00000 -6.35968 0.00000 0.00000
9359 6207 6206 6209 3 1.58992 4.76976 0.00000 -6.35968 0.00000 0.00000
9364 9357 9358 9359 3 33.20422 0.00000 -33.20422 0.00000 0.00000 0.00000 ; methylguanidinium ion
9364 9357 9358 9362 3 20.50160 0.00000 -20.50160 0.00000 0.00000 0.00000 ; imides
9364 9365 9372 9373 3 30.28798 -4.81160 -25.47638 0.00000 0.00000 0.00000 ; imides
9365 9372 9373 9356 3 30.28798 -4.81160 -25.47638 0.00000 0.00000 0.00000 ; imides
9365 9372 9373 9374 3 33.20422 0.00000 -33.20422 0.00000 0.00000 0.00000 ; methylguanidinium ion
9366 9365 9372 9373 3 33.20422 0.00000 -33.20422 0.00000 0.00000 0.00000 ; methylguanidinium ion
9367 8803 8802 8801 3 1.58992 4.76976 0.00000 -6.35968 0.00000 0.00000
9367 8803 8802 8804 3 1.58992 4.76976 0.00000 -6.35968 0.00000 0.00000
9367 8803 8802 8805 3 1.58992 4.76976 0.00000 -6.35968 0.00000 0.00000
9372 9365 9366 9367 3 33.20422 0.00000 -33.20422 0.00000 0.00000 0.00000 ; methylguanidinium ion
9372 9365 9366 9370 3 20.50160 0.00000 -20.50160 0.00000 0.00000 0.00000 ; imides
9373 9356 9357 9358 3 33.20422 0.00000 -33.20422 0.00000 0.00000 0.00000 ; methylguanidinium ion
9373 9356 9357 9364 3 30.28798 -4.81160 -25.47638 0.00000 0.00000 0.00000 ; imides
9382 9383 9391 9392 3 30.28798 -4.81160 -25.47638 0.00000 0.00000 0.00000 ; imides
9382 9400 9401 9402 3 33.20422 0.00000 -33.20422 0.00000 0.00000 0.00000 ; methylguanidinium ion
9382 9400 9401 9405 3 20.50160 0.00000 -20.50160 0.00000 0.00000 0.00000 ; imides
9383 9382 9400 9399 3 30.28798 -4.81160 -25.47638 0.00000 0.00000 0.00000 ; imides
9383 9382 9400 9401 3 33.20422 0.00000 -33.20422 0.00000 0.00000 0.00000 ; methylguanidinium ion
9383 9391 9392 9393 3 33.20422 0.00000 -33.20422 0.00000 0.00000 0.00000 ; methylguanidinium ion
9383 9391 9392 9399 3 30.28798 -4.81160 -25.47638 0.00000 0.00000 0.00000 ; imides
9384 9383 9391 9392 3 33.20422 0.00000 -33.20422 0.00000 0.00000 0.00000 ; methylguanidinium ion
9385 9386 11515 11514 3 1.58992 4.76976 0.00000 -6.35968 0.00000 0.00000
9385 9386 11515 11516 3 1.58992 4.76976 0.00000 -6.35968 0.00000 0.00000
9385 9386 11515 11517 3 1.58992 4.76976 0.00000 -6.35968 0.00000 0.00000
9386 11515 11514 11513 3 1.78866 3.49154 0.53555 -5.81576 0.00000 0.00000
9386 11515 11514 11518 3 -1.26775 3.02085 1.74473 -3.49782 0.00000 0.00000
9391 9383 9384 9385 3 33.20422 0.00000 -33.20422 0.00000 0.00000 0.00000 ; methylguanidinium ion
9391 9383 9384 9389 3 20.50160 0.00000 -20.50160 0.00000 0.00000 0.00000 ; imides
9391 9392 9399 9400 3 30.28798 -4.81160 -25.47638 0.00000 0.00000 0.00000 ; imides
9392 9399 9400 9382 3 30.28798 -4.81160 -25.47638 0.00000 0.00000 0.00000 ; imides
9392 9399 9400 9401 3 33.20422 0.00000 -33.20422 0.00000 0.00000 0.00000 ; methylguanidinium ion
9393 9392 9399 9400 3 33.20422 0.00000 -33.20422 0.00000 0.00000 0.00000 ; methylguanidinium ion
9394 907 906 905 3 1.58992 4.76976 0.00000 -6.35968 0.00000 0.00000
9394 907 906 908 3 1.58992 4.76976 0.00000 -6.35968 0.00000 0.00000
9394 907 906 909 3 1.58992 4.76976 0.00000 -6.35968 0.00000 0.00000
9399 9392 9393 9394 3 33.20422 0.00000 -33.20422 0.00000 0.00000 0.00000 ; methylguanidinium ion
9399 9392 9393 9397 3 20.50160 0.00000 -20.50160 0.00000 0.00000 0.00000 ; imides
9400 9382 9383 9384 3 33.20422 0.00000 -33.20422 0.00000 0.00000 0.00000 ; methylguanidinium ion
9400 9382 9383 9391 3 30.28798 -4.81160 -25.47638 0.00000 0.00000 0.00000 ; imides
9402 5363 5362 5361 3 1.58992 4.76976 0.00000 -6.35968 0.00000 0.00000
9402 5363 5362 5364 3 1.58992 4.76976 0.00000 -6.35968 0.00000 0.00000
9402 5363 5362 5365 3 1.58992 4.76976 0.00000 -6.35968 0.00000 0.00000
9407 9408 9415 9416 3 30.28798 -4.81160 -25.47638 0.00000 0.00000 0.00000 ; imides
9407 9424 9425 9426 3 33.20422 0.00000 -33.20422 0.00000 0.00000 0.00000 ; methylguanidinium ion
9407 9424 9425 9429 3 20.50160 0.00000 -20.50160 0.00000 0.00000 0.00000 ; imides
9408 9407 9424 9423 3 30.28798 -4.81160 -25.47638 0.00000 0.00000 0.00000 ; imides
9408 9407 9424 9425 3 33.20422 0.00000 -33.20422 0.00000 0.00000 0.00000 ; methylguanidinium ion
9408 9415 9416 9417 3 33.20422 0.00000 -33.20422 0.00000 0.00000 0.00000 ; methylguanidinium ion
9408 9415 9416 9423 3 30.28798 -4.81160 -25.47638 0.00000 0.00000 0.00000 ; imides
9409 9408 9415 9416 3 33.20422 0.00000 -33.20422 0.00000 0.00000 0.00000 ; methylguanidinium ion
9410 7925 7924 7923 3 1.58992 4.76976 0.00000 -6.35968 0.00000 0.00000
9410 7925 7924 7926 3 1.58992 4.76976 0.00000 -6.35968 0.00000 0.00000
9410 7925 7924 7927 3 1.58992 4.76976 0.00000 -6.35968 0.00000 0.00000
9415 9408 9409 9410 3 33.20422 0.00000 -33.20422 0.00000 0.00000 0.00000 ; methylguanidinium ion
9415 9408 9409 9413 3 20.50160 0.00000 -20.50160 0.00000 0.00000 0.00000 ; imides
9415 9416 9423 9424 3 30.28798 -4.81160 -25.47638 0.00000 0.00000 0.00000 ; imides
9416 9423 9424 9407 3 30.28798 -4.81160 -25.47638 0.00000 0.00000 0.00000 ; imides
9416 9423 9424 9425 3 33.20422 0.00000 -33.20422 0.00000 0.00000 0.00000 ; methylguanidinium ion
9417 9416 9423 9424 3 33.20422 0.00000 -33.20422 0.00000 0.00000 0.00000 ; methylguanidinium ion
9418 1978 1977 1976 3 1.58992 4.76976 0.00000 -6.35968 0.00000 0.00000
9418 1978 1977 1979 3 1.58992 4.76976 0.00000 -6.35968 0.00000 0.00000
9418 1978 1977 1980 3 1.58992 4.76976 0.00000 -6.35968 0.00000 0.00000
9423 9416 9417 9418 3 33.20422 0.00000 -33.20422 0.00000 0.00000 0.00000 ; methylguanidinium ion
9423 9416 9417 9421 3 20.50160 0.00000 -20.50160 0.00000 0.00000 0.00000 ; imides
9424 9407 9408 9409 3 33.20422 0.00000 -33.20422 0.00000 0.00000 0.00000 ; methylguanidinium ion
9424 9407 9408 9415 3 30.28798 -4.81160 -25.47638 0.00000 0.00000 0.00000 ; imides
9426 7764 7763 7762 3 1.58992 4.76976 0.00000 -6.35968 0.00000 0.00000
9426 7764 7763 7765 3 1.58992 4.76976 0.00000 -6.35968 0.00000 0.00000
9426 7764 7763 7766 3 1.58992 4.76976 0.00000 -6.35968 0.00000 0.00000
9431 9432 9439 9440 3 30.28798 -4.81160 -25.47638 0.00000 0.00000 0.00000 ; imides
9431 9449 9450 9451 3 33.20422 0.00000 -33.20422 0.00000 0.00000 0.00000 ; methylguanidinium ion
9431 9449 9450 9454 3 20.50160 0.00000 -20.50160 0.00000 0.00000 0.00000 ; imides
9432 9431 9449 9448 3 30.28798 -4.81160 -25.47638 0.00000 0.00000 0.00000 ; imides
9432 9431 9449 9450 3 33.20422 0.00000 -33.20422 0.00000 0.00000 0.00000 ; methylguanidinium ion
9432 9439 9440 9441 3 33.20422 0.00000 -33.20422 0.00000 0.00000 0.00000 ; methylguanidinium ion
9432 9439 9440 9448 3 30.28798 -4.81160 -25.47638 0.00000 0.00000 0.00000 ; imides
9433 9432 9439 9440 3 33.20422 0.00000 -33.20422 0.00000 0.00000 0.00000 ; methylguanidinium ion
9434 5867 5866 5865 3 1.58992 4.76976 0.00000 -6.35968 0.00000 0.00000
9434 5867 5866 5868 3 1.58992 4.76976 0.00000 -6.35968 0.00000 0.00000
9434 5867 5866 5869 3 1.58992 4.76976 0.00000 -6.35968 0.00000 0.00000
9439 9432 9433 9434 3 33.20422 0.00000 -33.20422 0.00000 0.00000 0.00000 ; methylguanidinium ion
9439 9432 9433 9437 3 20.50160 0.00000 -20.50160 0.00000 0.00000 0.00000 ; imides
9439 9440 9448 9449 3 30.28798 -4.81160 -25.47638 0.00000 0.00000 0.00000 ; imides
9440 9448 9449 9431 3 30.28798 -4.81160 -25.47638 0.00000 0.00000 0.00000 ; imides
9440 9448 9449 9450 3 33.20422 0.00000 -33.20422 0.00000 0.00000 0.00000 ; methylguanidinium ion
9441 9440 9448 9449 3 33.20422 0.00000 -33.20422 0.00000 0.00000 0.00000 ; methylguanidinium ion
9442 9443 10217 10216 3 1.58992 4.76976 0.00000 -6.35968 0.00000 0.00000
9442 9443 10217 10218 3 1.58992 4.76976 0.00000 -6.35968 0.00000 0.00000
9442 9443 10217 10219 3 1.58992 4.76976 0.00000 -6.35968 0.00000 0.00000
9443 10217 10216 10215 3 1.78866 3.49154 0.53555 -5.81576 0.00000 0.00000
9443 10217 10216 10220 3 -1.26775 3.02085 1.74473 -3.49782 0.00000 0.00000
9448 9440 9441 9442 3 33.20422 0.00000 -33.20422 0.00000 0.00000 0.00000 ; methylguanidinium ion
9448 9440 9441 9446 3 20.50160 0.00000 -20.50160 0.00000 0.00000 0.00000 ; imides
9449 9431 9432 9433 3 33.20422 0.00000 -33.20422 0.00000 0.00000 0.00000 ; methylguanidinium ion
9449 9431 9432 9439 3 30.28798 -4.81160 -25.47638 0.00000 0.00000 0.00000 ; imides
9451 2940 2939 2938 3 1.58992 4.76976 0.00000 -6.35968 0.00000 0.00000
9451 2940 2939 2941 3 1.58992 4.76976 0.00000 -6.35968 0.00000 0.00000
9451 2940 2939 2942 3 1.58992 4.76976 0.00000 -6.35968 0.00000 0.00000
9456 9457 9464 9465 3 30.28798 -4.81160 -25.47638 0.00000 0.00000 0.00000 ; imides
9456 9473 9474 9475 3 33.20422 0.00000 -33.20422 0.00000 0.00000 0.00000 ; methylguanidinium ion
9456 9473 9474 9478 3 20.50160 0.00000 -20.50160 0.00000 0.00000 0.00000 ; imides
9457 9456 9473 9472 3 30.28798 -4.81160 -25.47638 0.00000 0.00000 0.00000 ; imides
9457 9456 9473 9474 3 33.20422 0.00000 -33.20422 0.00000 0.00000 0.00000 ; methylguanidinium ion
9457 9464 9465 9466 3 33.20422 0.00000 -33.20422 0.00000 0.00000 0.00000 ; methylguanidinium ion
9457 9464 9465 9472 3 30.28798 -4.81160 -25.47638 0.00000 0.00000 0.00000 ; imides
9458 9457 9464 9465 3 33.20422 0.00000 -33.20422 0.00000 0.00000 0.00000 ; methylguanidinium ion
9459 8913 8912 8911 3 1.58992 4.76976 0.00000 -6.35968 0.00000 0.00000
9459 8913 8912 8914 3 1.58992 4.76976 0.00000 -6.35968 0.00000 0.00000
9459 8913 8912 8915 3 1.58992 4.76976 0.00000 -6.35968 0.00000 0.00000
9464 9457 9458 9459 3 33.20422 0.00000 -33.20422 0.00000 0.00000 0.00000 ; methylguanidinium ion
9464 9457 9458 9462 3 20.50160 0.00000 -20.50160 0.00000 0.00000 0.00000 ; imides
9464 9465 9472 9473 3 30.28798 -4.81160 -25.47638 0.00000 0.00000 0.00000 ; imides
9465 9472 9473 9456 3 30.28798 -4.81160 -25.47638 0.00000 0.00000 0.00000 ; imides
9465 9472 9473 9474 3 33.20422 0.00000 -33.20422 0.00000 0.00000 0.00000 ; methylguanidinium ion
9466 9465 9472 9473 3 33.20422 0.00000 -33.20422 0.00000 0.00000 0.00000 ; methylguanidinium ion
9467 3003 3002 3001 3 1.58992 4.76976 0.00000 -6.35968 0.00000 0.00000
9467 3003 3002 3004 3 1.58992 4.76976 0.00000 -6.35968 0.00000 0.00000
9467 3003 3002 3005 3 1.58992 4.76976 0.00000 -6.35968 0.00000 0.00000
9472 9465 9466 9467 3 33.20422 0.00000 -33.20422 0.00000 0.00000 0.00000 ; methylguanidinium ion
9472 9465 9466 9470 3 20.50160 0.00000 -20.50160 0.00000 0.00000 0.00000 ; imides
9473 9456 9457 9458 3 33.20422 0.00000 -33.20422 0.00000 0.00000 0.00000 ; methylguanidinium ion
9473 9456 9457 9464 3 30.28798 -4.81160 -25.47638 0.00000 0.00000 0.00000 ; imides
9475 2119 2118 2117 3 1.58992 4.76976 0.00000 -6.35968 0.00000 0.00000
9475 2119 2118 2120 3 1.58992 4.76976 0.00000 -6.35968 0.00000 0.00000
9475 2119 2118 2121 3 1.58992 4.76976 0.00000 -6.35968 0.00000 0.00000
9480 9481 9489 9490 3 30.28798 -4.81160 -25.47638 0.00000 0.00000 0.00000 ; imides
9480 9499 9500 9501 3 33.20422 0.00000 -33.20422 0.00000 0.00000 0.00000 ; methylguanidinium ion
9480 9499 9500 9504 3 20.50160 0.00000 -20.50160 0.00000 0.00000 0.00000 ; imides
9481 9480 9499 9498 3 30.28798 -4.81160 -25.47638 0.00000 0.00000 0.00000 ; imides
9481 9480 9499 9500 3 33.20422 0.00000 -33.20422 0.00000 0.00000 0.00000 ; methylguanidinium ion
9481 9489 9490 9491 3 33.20422 0.00000 -33.20422 0.00000 0.00000 0.00000 ; methylguanidinium ion
9481 9489 9490 9498 3 30.28798 -4.81160 -25.47638 0.00000 0.00000 0.00000 ; imides
9482 9481 9489 9490 3 33.20422 0.00000 -33.20422 0.00000 0.00000 0.00000 ; methylguanidinium ion
9483 9484 10012 10011 3 1.58992 4.76976 0.00000 -6.35968 0.00000 0.00000
9483 9484 10012 10013 3 1.58992 4.76976 0.00000 -6.35968 0.00000 0.00000
9483 9484 10012 10014 3 1.58992 4.76976 0.00000 -6.35968 0.00000 0.00000
9484 10012 10011 10010 3 1.78866 3.49154 0.53555 -5.81576 0.00000 0.00000
9484 10012 10011 10015 3 -1.26775 3.02085 1.74473 -3.49782 0.00000 0.00000
9489 9481 9482 9483 3 33.20422 0.00000 -33.20422 0.00000 0.00000 0.00000 ; methylguanidinium ion
9489 9481 9482 9487 3 20.50160 0.00000 -20.50160 0.00000 0.00000 0.00000 ; imides
9489 9490 9498 9499 3 30.28798 -4.81160 -25.47638 0.00000 0.00000 0.00000 ; imides
9490 9498 9499 9480 3 30.28798 -4.81160 -25.47638 0.00000 0.00000 0.00000 ; imides
9490 9498 9499 9500 3 33.20422 0.00000 -33.20422 0.00000 0.00000 0.00000 ; methylguanidinium ion
9491 9490 9498 9499 3 33.20422 0.00000 -33.20422 0.00000 0.00000 0.00000 ; methylguanidinium ion
9492 9493 12708 12707 3 1.58992 4.76976 0.00000 -6.35968 0.00000 0.00000
9492 9493 12708 12709 3 1.58992 4.76976 0.00000 -6.35968 0.00000 0.00000
9492 9493 12708 12710 3 1.58992 4.76976 0.00000 -6.35968 0.00000 0.00000
9493 12708 12707 12706 3 1.78866 3.49154 0.53555 -5.81576 0.00000 0.00000
9493 12708 12707 12711 3 -1.26775 3.02085 1.74473 -3.49782 0.00000 0.00000
9498 9490 9491 9492 3 33.20422 0.00000 -33.20422 0.00000 0.00000 0.00000 ; methylguanidinium ion
9498 9490 9491 9496 3 20.50160 0.00000 -20.50160 0.00000 0.00000 0.00000 ; imides
9499 9480 9481 9482 3 33.20422 0.00000 -33.20422 0.00000 0.00000 0.00000 ; methylguanidinium ion
9499 9480 9481 9489 3 30.28798 -4.81160 -25.47638 0.00000 0.00000 0.00000 ; imides
9501 4517 4516 4515 3 1.58992 4.76976 0.00000 -6.35968 0.00000 0.00000
9501 4517 4516 4518 3 1.58992 4.76976 0.00000 -6.35968 0.00000 0.00000
9501 4517 4516 4519 3 1.58992 4.76976 0.00000 -6.35968 0.00000 0.00000
9506 9507 9515 9516 3 30.28798 -4.81160 -25.47638 0.00000 0.00000 0.00000 ; imides
9506 9525 9526 9527 3 33.20422 0.00000 -33.20422 0.00000 0.00000 0.00000 ; methylguanidinium ion
9506 9525 9526 9530 3 20.50160 0.00000 -20.50160 0.00000 0.00000 0.00000 ; imides
9507 9506 9525 9524 3 30.28798 -4.81160 -25.47638 0.00000 0.00000 0.00000 ; imides
9507 9506 9525 9526 3 33.20422 0.00000 -33.20422 0.00000 0.00000 0.00000 ; methylguanidinium ion
9507 9515 9516 9517 3 33.20422 0.00000 -33.20422 0.00000 0.00000 0.00000 ; methylguanidinium ion
9507 9515 9516 9524 3 30.28798 -4.81160 -25.47638 0.00000 0.00000 0.00000 ; imides
9508 9507 9515 9516 3 33.20422 0.00000 -33.20422 0.00000 0.00000 0.00000 ; methylguanidinium ion
9509 9510 12083 12082 3 1.58992 4.76976 0.00000 -6.35968 0.00000 0.00000
9509 9510 12083 12084 3 1.58992 4.76976 0.00000 -6.35968 0.00000 0.00000
9509 9510 12083 12085 3 1.58992 4.76976 0.00000 -6.35968 0.00000 0.00000
9510 12083 12082 12081 3 1.78866 3.49154 0.53555 -5.81576 0.00000 0.00000
9510 12083 12082 12086 3 -1.26775 3.02085 1.74473 -3.49782 0.00000 0.00000
9515 9507 9508 9509 3 33.20422 0.00000 -33.20422 0.00000 0.00000 0.00000 ; methylguanidinium ion
9515 9507 9508 9513 3 20.50160 0.00000 -20.50160 0.00000 0.00000 0.00000 ; imides
9515 9516 9524 9525 3 30.28798 -4.81160 -25.47638 0.00000 0.00000 0.00000 ; imides
9516 9524 9525 9506 3 30.28798 -4.81160 -25.47638 0.00000 0.00000 0.00000 ; imides
9516 9524 9525 9526 3 33.20422 0.00000 -33.20422 0.00000 0.00000 0.00000 ; methylguanidinium ion
9517 9516 9524 9525 3 33.20422 0.00000 -33.20422 0.00000 0.00000 0.00000 ; methylguanidinium ion
9518 9519 12025 12024 3 1.58992 4.76976 0.00000 -6.35968 0.00000 0.00000
9518 9519 12025 12026 3 1.58992 4.76976 0.00000 -6.35968 0.00000 0.00000
9518 9519 12025 12027 3 1.58992 4.76976 0.00000 -6.35968 0.00000 0.00000
9519 12025 12024 12023 3 1.78866 3.49154 0.53555 -5.81576 0.00000 0.00000
9519 12025 12024 12028 3 -1.26775 3.02085 1.74473 -3.49782 0.00000 0.00000
9524 9516 9517 9518 3 33.20422 0.00000 -33.20422 0.00000 0.00000 0.00000 ; methylguanidinium ion
9524 9516 9517 9522 3 20.50160 0.00000 -20.50160 0.00000 0.00000 0.00000 ; imides
9525 9506 9507 9508 3 33.20422 0.00000 -33.20422 0.00000 0.00000 0.00000 ; methylguanidinium ion
9525 9506 9507 9515 3 30.28798 -4.81160 -25.47638 0.00000 0.00000 0.00000 ; imides
9527 6379 6378 6377 3 1.58992 4.76976 0.00000 -6.35968 0.00000 0.00000
9527 6379 6378 6380 3 1.58992 4.76976 0.00000 -6.35968 0.00000 0.00000
9527 6379 6378 6381 3 1.58992 4.76976 0.00000 -6.35968 0.00000 0.00000
9532 9533 9541 9542 3 30.28798 -4.81160 -25.47638 0.00000 0.00000 0.00000 ; imides
9532 9550 9551 9552 3 33.20422 0.00000 -33.20422 0.00000 0.00000 0.00000 ; methylguanidinium ion
9532 9550 9551 9556 3 20.50160 0.00000 -20.50160 0.00000 0.00000 0.00000 ; imides
9533 9532 9550 9549 3 30.28798 -4.81160 -25.47638 0.00000 0.00000 0.00000 ; imides
9533 9532 9550 9551 3 33.20422 0.00000 -33.20422 0.00000 0.00000 0.00000 ; methylguanidinium ion
9533 9541 9542 9543 3 33.20422 0.00000 -33.20422 0.00000 0.00000 0.00000 ; methylguanidinium ion
9533 9541 9542 9549 3 30.28798 -4.81160 -25.47638 0.00000 0.00000 0.00000 ; imides
9534 9533 9541 9542 3 33.20422 0.00000 -33.20422 0.00000 0.00000 0.00000 ; methylguanidinium ion
9535 9536 12692 12691 3 1.58992 4.76976 0.00000 -6.35968 0.00000 0.00000
9535 9536 12692 12693 3 1.58992 4.76976 0.00000 -6.35968 0.00000 0.00000
9535 9536 12692 12694 3 1.58992 4.76976 0.00000 -6.35968 0.00000 0.00000
9536 12692 12691 12690 3 1.78866 3.49154 0.53555 -5.81576 0.00000 0.00000
9536 12692 12691 12695 3 -1.26775 3.02085 1.74473 -3.49782 0.00000 0.00000
9541 9533 9534 9535 3 33.20422 0.00000 -33.20422 0.00000 0.00000 0.00000 ; methylguanidinium ion
9541 9533 9534 9539 3 20.50160 0.00000 -20.50160 0.00000 0.00000 0.00000 ; imides
9541 9542 9549 9550 3 30.28798 -4.81160 -25.47638 0.00000 0.00000 0.00000 ; imides
9542 9549 9550 9532 3 30.28798 -4.81160 -25.47638 0.00000 0.00000 0.00000 ; imides
9542 9549 9550 9551 3 33.20422 0.00000 -33.20422 0.00000 0.00000 0.00000 ; methylguanidinium ion
9543 9542 9549 9550 3 33.20422 0.00000 -33.20422 0.00000 0.00000 0.00000 ; methylguanidinium ion
9544 7513 7512 7511 3 1.58992 4.76976 0.00000 -6.35968 0.00000 0.00000
9544 7513 7512 7514 3 1.58992 4.76976 0.00000 -6.35968 0.00000 0.00000
9544 7513 7512 7515 3 1.58992 4.76976 0.00000 -6.35968 0.00000 0.00000
9549 9542 9543 9544 3 33.20422 0.00000 -33.20422 0.00000 0.00000 0.00000 ; methylguanidinium ion
9549 9542 9543 9547 3 20.50160 0.00000 -20.50160 0.00000 0.00000 0.00000 ; imides
9550 9532 9533 9534 3 33.20422 0.00000 -33.20422 0.00000 0.00000 0.00000 ; methylguanidinium ion
9550 9532 9533 9541 3 30.28798 -4.81160 -25.47638 0.00000 0.00000 0.00000 ; imides
9552 9553 12586 12585 3 1.58992 4.76976 0.00000 -6.35968 0.00000 0.00000
9552 9553 12586 12587 3 1.58992 4.76976 0.00000 -6.35968 0.00000 0.00000
9552 9553 12586 12588 3 1.58992 4.76976 0.00000 -6.35968 0.00000 0.00000
9553 12586 12585 12584 3 1.78866 3.49154 0.53555 -5.81576 0.00000 0.00000
9553 12586 12585 12589 3 -1.26775 3.02085 1.74473 -3.49782 0.00000 0.00000
9558 9559 9566 9567 3 30.28798 -4.81160 -25.47638 0.00000 0.00000 0.00000 ; imides
9558 9576 9577 9578 3 33.20422 0.00000 -33.20422 0.00000 0.00000 0.00000 ; methylguanidinium ion
9558 9576 9577 9583 3 20.50160 0.00000 -20.50160 0.00000 0.00000 0.00000 ; imides
9559 9558 9576 9575 3 30.28798 -4.81160 -25.47638 0.00000 0.00000 0.00000 ; imides
9559 9558 9576 9577 3 33.20422 0.00000 -33.20422 0.00000 0.00000 0.00000 ; methylguanidinium ion
9559 9566 9567 9568 3 33.20422 0.00000 -33.20422 0.00000 0.00000 0.00000 ; methylguanidinium ion
9559 9566 9567 9575 3 30.28798 -4.81160 -25.47638 0.00000 0.00000 0.00000 ; imides
9560 9559 9566 9567 3 33.20422 0.00000 -33.20422 0.00000 0.00000 0.00000 ; methylguanidinium ion
9561 4465 4464 4463 3 1.58992 4.76976 0.00000 -6.35968 0.00000 0.00000
9561 4465 4464 4466 3 1.58992 4.76976 0.00000 -6.35968 0.00000 0.00000
9561 4465 4464 4467 3 1.58992 4.76976 0.00000 -6.35968 0.00000 0.00000
9566 9559 9560 9561 3 33.20422 0.00000 -33.20422 0.00000 0.00000 0.00000 ; methylguanidinium ion
9566 9559 9560 9564 3 20.50160 0.00000 -20.50160 0.00000 0.00000 0.00000 ; imides
9566 9567 9575 9576 3 30.28798 -4.81160 -25.47638 0.00000 0.00000 0.00000 ; imides
9567 9575 9576 9558 3 30.28798 -4.81160 -25.47638 0.00000 0.00000 0.00000 ; imides
9567 9575 9576 9577 3 33.20422 0.00000 -33.20422 0.00000 0.00000 0.00000 ; methylguanidinium ion
9568 9567 9575 9576 3 33.20422 0.00000 -33.20422 0.00000 0.00000 0.00000 ; methylguanidinium ion
9569 9570 11044 11043 3 1.58992 4.76976 0.00000 -6.35968 0.00000 0.00000
9569 9570 11044 11045 3 1.58992 4.76976 0.00000 -6.35968 0.00000 0.00000
9569 9570 11044 11046 3 1.58992 4.76976 0.00000 -6.35968 0.00000 0.00000
9570 11044 11043 11042 3 1.78866 3.49154 0.53555 -5.81576 0.00000 0.00000
9570 11044 11043 11047 3 -1.26775 3.02085 1.74473 -3.49782 0.00000 0.00000
9575 9567 9568 9569 3 33.20422 0.00000 -33.20422 0.00000 0.00000 0.00000 ; methylguanidinium ion
9575 9567 9568 9573 3 20.50160 0.00000 -20.50160 0.00000 0.00000 0.00000 ; imides
9576 9558 9559 9560 3 33.20422 0.00000 -33.20422 0.00000 0.00000 0.00000 ; methylguanidinium ion
9576 9558 9559 9566 3 30.28798 -4.81160 -25.47638 0.00000 0.00000 0.00000 ; imides
9585 9586 9594 9595 3 30.28798 -4.81160 -25.47638 0.00000 0.00000 0.00000 ; imides
9585 9604 9605 9606 3 33.20422 0.00000 -33.20422 0.00000 0.00000 0.00000 ; methylguanidinium ion
9585 9604 9605 9609 3 20.50160 0.00000 -20.50160 0.00000 0.00000 0.00000 ; imides
9586 9585 9604 9603 3 30.28798 -4.81160 -25.47638 0.00000 0.00000 0.00000 ; imides
9586 9585 9604 9605 3 33.20422 0.00000 -33.20422 0.00000 0.00000 0.00000 ; methylguanidinium ion
9586 9594 9595 9596 3 33.20422 0.00000 -33.20422 0.00000 0.00000 0.00000 ; methylguanidinium ion
9586 9594 9595 9603 3 30.28798 -4.81160 -25.47638 0.00000 0.00000 0.00000 ; imides
9587 9586 9594 9595 3 33.20422 0.00000 -33.20422 0.00000 0.00000 0.00000 ; methylguanidinium ion
9588 9589 11592 11591 3 1.58992 4.76976 0.00000 -6.35968 0.00000 0.00000
9588 9589 11592 11593 3 1.58992 4.76976 0.00000 -6.35968 0.00000 0.00000
9588 9589 11592 11594 3 1.58992 4.76976 0.00000 -6.35968 0.00000 0.00000
9589 11592 11591 11590 3 1.78866 3.49154 0.53555 -5.81576 0.00000 0.00000
9589 11592 11591 11595 3 -1.26775 3.02085 1.74473 -3.49782 0.00000 0.00000
9594 9586 9587 9588 3 33.20422 0.00000 -33.20422 0.00000 0.00000 0.00000 ; methylguanidinium ion
9594 9586 9587 9592 3 20.50160 0.00000 -20.50160 0.00000 0.00000 0.00000 ; imides
9594 9595 9603 9604 3 30.28798 -4.81160 -25.47638 0.00000 0.00000 0.00000 ; imides
9595 9603 9604 9585 3 30.28798 -4.81160 -25.47638 0.00000 0.00000 0.00000 ; imides
9595 9603 9604 9605 3 33.20422 0.00000 -33.20422 0.00000 0.00000 0.00000 ; methylguanidinium ion
9596 9595 9603 9604 3 33.20422 0.00000 -33.20422 0.00000 0.00000 0.00000 ; methylguanidinium ion
9597 9598 11247 11246 3 1.58992 4.76976 0.00000 -6.35968 0.00000 0.00000
9597 9598 11247 11248 3 1.58992 4.76976 0.00000 -6.35968 0.00000 0.00000
9597 9598 11247 11249 3 1.58992 4.76976 0.00000 -6.35968 0.00000 0.00000
9598 11247 11246 11245 3 1.78866 3.49154 0.53555 -5.81576 0.00000 0.00000
9598 11247 11246 11250 3 -1.26775 3.02085 1.74473 -3.49782 0.00000 0.00000
9603 9595 9596 9597 3 33.20422 0.00000 -33.20422 0.00000 0.00000 0.00000 ; methylguanidinium ion
9603 9595 9596 9601 3 20.50160 0.00000 -20.50160 0.00000 0.00000 0.00000 ; imides
9604 9585 9586 9587 3 33.20422 0.00000 -33.20422 0.00000 0.00000 0.00000 ; methylguanidinium ion
9604 9585 9586 9594 3 30.28798 -4.81160 -25.47638 0.00000 0.00000 0.00000 ; imides
9606 1324 1323 1322 3 1.58992 4.76976 0.00000 -6.35968 0.00000 0.00000
9606 1324 1323 1325 3 1.58992 4.76976 0.00000 -6.35968 0.00000 0.00000
9606 1324 1323 1326 3 1.58992 4.76976 0.00000 -6.35968 0.00000 0.00000
9611 9612 9619 9620 3 30.28798 -4.81160 -25.47638 0.00000 0.00000 0.00000 ; imides
9611 9628 9629 9630 3 33.20422 0.00000 -33.20422 0.00000 0.00000 0.00000 ; methylguanidinium ion
9611 9628 9629 9633 3 20.50160 0.00000 -20.50160 0.00000 0.00000 0.00000 ; imides
9612 9611 9628 9627 3 30.28798 -4.81160 -25.47638 0.00000 0.00000 0.00000 ; imides
9612 9611 9628 9629 3 33.20422 0.00000 -33.20422 0.00000 0.00000 0.00000 ; methylguanidinium ion
9612 9619 9620 9621 3 33.20422 0.00000 -33.20422 0.00000 0.00000 0.00000 ; methylguanidinium ion
9612 9619 9620 9627 3 30.28798 -4.81160 -25.47638 0.00000 0.00000 0.00000 ; imides
9613 9612 9619 9620 3 33.20422 0.00000 -33.20422 0.00000 0.00000 0.00000 ; methylguanidinium ion
9614 8617 8616 8615 3 1.58992 4.76976 0.00000 -6.35968 0.00000 0.00000
9614 8617 8616 8618 3 1.58992 4.76976 0.00000 -6.35968 0.00000 0.00000
9614 8617 8616 8619 3 1.58992 4.76976 0.00000 -6.35968 0.00000 0.00000
9619 9612 9613 9614 3 33.20422 0.00000 -33.20422 0.00000 0.00000 0.00000 ; methylguanidinium ion
9619 9612 9613 9617 3 20.50160 0.00000 -20.50160 0.00000 0.00000 0.00000 ; imides
9619 9620 9627 9628 3 30.28798 -4.81160 -25.47638 0.00000 0.00000 0.00000 ; imides
9620 9627 9628 9611 3 30.28798 -4.81160 -25.47638 0.00000 0.00000 0.00000 ; imides
9620 9627 9628 9629 3 33.20422 0.00000 -33.20422 0.00000 0.00000 0.00000 ; methylguanidinium ion
9621 9620 9627 9628 3 33.20422 0.00000 -33.20422 0.00000 0.00000 0.00000 ; methylguanidinium ion
9622 1684 1683 1682 3 1.58992 4.76976 0.00000 -6.35968 0.00000 0.00000
9622 1684 1683 1685 3 1.58992 4.76976 0.00000 -6.35968 0.00000 0.00000
9622 1684 1683 1686 3 1.58992 4.76976 0.00000 -6.35968 0.00000 0.00000
9627 9620 9621 9622 3 33.20422 0.00000 -33.20422 0.00000 0.00000 0.00000 ; methylguanidinium ion
9627 9620 9621 9625 3 20.50160 0.00000 -20.50160 0.00000 0.00000 0.00000 ; imides
9628 9611 9612 9613 3 33.20422 0.00000 -33.20422 0.00000 0.00000 0.00000 ; methylguanidinium ion
9628 9611 9612 9619 3 30.28798 -4.81160 -25.47638 0.00000 0.00000 0.00000 ; imides
9630 535 534 533 3 1.58992 4.76976 0.00000 -6.35968 0.00000 0.00000
9630 535 534 536 3 1.58992 4.76976 0.00000 -6.35968 0.00000 0.00000
9630 535 534 537 3 1.58992 4.76976 0.00000 -6.35968 0.00000 0.00000
9635 9636 9643 9644 3 30.28798 -4.81160 -25.47638 0.00000 0.00000 0.00000 ; imides
9635 9654 9655 9656 3 33.20422 0.00000 -33.20422 0.00000 0.00000 0.00000 ; methylguanidinium ion
9635 9654 9655 9659 3 20.50160 0.00000 -20.50160 0.00000 0.00000 0.00000 ; imides
9636 9635 9654 9653 3 30.28798 -4.81160 -25.47638 0.00000 0.00000 0.00000 ; imides
9636 9635 9654 9655 3 33.20422 0.00000 -33.20422 0.00000 0.00000 0.00000 ; methylguanidinium ion
9636 9643 9644 9645 3 33.20422 0.00000 -33.20422 0.00000 0.00000 0.00000 ; methylguanidinium ion
9636 9643 9644 9653 3 30.28798 -4.81160 -25.47638 0.00000 0.00000 0.00000 ; imides
9637 9636 9643 9644 3 33.20422 0.00000 -33.20422 0.00000 0.00000 0.00000 ; methylguanidinium ion
9638 808 807 806 3 1.58992 4.76976 0.00000 -6.35968 0.00000 0.00000
9638 808 807 809 3 1.58992 4.76976 0.00000 -6.35968 0.00000 0.00000
9638 808 807 810 3 1.58992 4.76976 0.00000 -6.35968 0.00000 0.00000
9643 9636 9637 9638 3 33.20422 0.00000 -33.20422 0.00000 0.00000 0.00000 ; methylguanidinium ion
9643 9636 9637 9641 3 20.50160 0.00000 -20.50160 0.00000 0.00000 0.00000 ; imides
9643 9644 9653 9654 3 30.28798 -4.81160 -25.47638 0.00000 0.00000 0.00000 ; imides
9644 9653 9654 9635 3 30.28798 -4.81160 -25.47638 0.00000 0.00000 0.00000 ; imides
9644 9653 9654 9655 3 33.20422 0.00000 -33.20422 0.00000 0.00000 0.00000 ; methylguanidinium ion
9645 9644 9653 9654 3 33.20422 0.00000 -33.20422 0.00000 0.00000 0.00000 ; methylguanidinium ion
9653 9644 9645 9646 3 33.20422 0.00000 -33.20422 0.00000 0.00000 0.00000 ; methylguanidinium ion
9653 9644 9645 9651 3 20.50160 0.00000 -20.50160 0.00000 0.00000 0.00000 ; imides
9654 9635 9636 9637 3 33.20422 0.00000 -33.20422 0.00000 0.00000 0.00000 ; methylguanidinium ion
9654 9635 9636 9643 3 30.28798 -4.81160 -25.47638 0.00000 0.00000 0.00000 ; imides
9656 5755 5754 5753 3 1.58992 4.76976 0.00000 -6.35968 0.00000 0.00000
9656 5755 5754 5756 3 1.58992 4.76976 0.00000 -6.35968 0.00000 0.00000
9656 5755 5754 5757 3 1.58992 4.76976 0.00000 -6.35968 0.00000 0.00000
9661 9662 9669 9670 3 30.28798 -4.81160 -25.47638 0.00000 0.00000 0.00000 ; imides
9661 9678 9679 9680 3 33.20422 0.00000 -33.20422 0.00000 0.00000 0.00000 ; methylguanidinium ion
9661 9678 9679 9683 3 20.50160 0.00000 -20.50160 0.00000 0.00000 0.00000 ; imides
9662 9661 9678 9677 3 30.28798 -4.81160 -25.47638 0.00000 0.00000 0.00000 ; imides
9662 9661 9678 9679 3 33.20422 0.00000 -33.20422 0.00000 0.00000 0.00000 ; methylguanidinium ion
9662 9669 9670 9671 3 33.20422 0.00000 -33.20422 0.00000 0.00000 0.00000 ; methylguanidinium ion
9662 9669 9670 9677 3 30.28798 -4.81160 -25.47638 0.00000 0.00000 0.00000 ; imides
9663 9662 9669 9670 3 33.20422 0.00000 -33.20422 0.00000 0.00000 0.00000 ; methylguanidinium ion
9664 8414 8413 8412 3 1.58992 4.76976 0.00000 -6.35968 0.00000 0.00000
9664 8414 8413 8415 3 1.58992 4.76976 0.00000 -6.35968 0.00000 0.00000
9664 8414 8413 8416 3 1.58992 4.76976 0.00000 -6.35968 0.00000 0.00000
9669 9662 9663 9664 3 33.20422 0.00000 -33.20422 0.00000 0.00000 0.00000 ; methylguanidinium ion
9669 9662 9663 9667 3 20.50160 0.00000 -20.50160 0.00000 0.00000 0.00000 ; imides
9669 9670 9677 9678 3 30.28798 -4.81160 -25.47638 0.00000 0.00000 0.00000 ; imides
9670 9677 9678 9661 3 30.28798 -4.81160 -25.47638 0.00000 0.00000 0.00000 ; imides
9670 9677 9678 9679 3 33.20422 0.00000 -33.20422 0.00000 0.00000 0.00000 ; methylguanidinium ion
9671 9670 9677 9678 3 33.20422 0.00000 -33.20422 0.00000 0.00000 0.00000 ; methylguanidinium ion
9672 9326 9325 9324 3 1.58992 4.76976 0.00000 -6.35968 0.00000 0.00000
9672 9326 9325 9327 3 1.58992 4.76976 0.00000 -6.35968 0.00000 0.00000
9672 9326 9325 9328 3 1.58992 4.76976 0.00000 -6.35968 0.00000 0.00000
9677 9670 9671 9672 3 33.20422 0.00000 -33.20422 0.00000 0.00000 0.00000 ; methylguanidinium ion
9677 9670 9671 9675 3 20.50160 0.00000 -20.50160 0.00000 0.00000 0.00000 ; imides
9678 9661 9662 9663 3 33.20422 0.00000 -33.20422 0.00000 0.00000 0.00000 ; methylguanidinium ion
9678 9661 9662 9669 3 30.28798 -4.81160 -25.47638 0.00000 0.00000 0.00000 ; imides
9680 428 427 426 3 1.58992 4.76976 0.00000 -6.35968 0.00000 0.00000
9680 428 427 429 3 1.58992 4.76976 0.00000 -6.35968 0.00000 0.00000
9680 428 427 430 3 1.58992 4.76976 0.00000 -6.35968 0.00000 0.00000
9685 9686 9693 9694 3 30.28798 -4.81160 -25.47638 0.00000 0.00000 0.00000 ; imides
9685 9702 9703 9704 3 33.20422 0.00000 -33.20422 0.00000 0.00000 0.00000 ; methylguanidinium ion
9685 9702 9703 9707 3 20.50160 0.00000 -20.50160 0.00000 0.00000 0.00000 ; imides
9686 9685 9702 9701 3 30.28798 -4.81160 -25.47638 0.00000 0.00000 0.00000 ; imides
9686 9685 9702 9703 3 33.20422 0.00000 -33.20422 0.00000 0.00000 0.00000 ; methylguanidinium ion
9686 9693 9694 9695 3 33.20422 0.00000 -33.20422 0.00000 0.00000 0.00000 ; methylguanidinium ion
9686 9693 9694 9701 3 30.28798 -4.81160 -25.47638 0.00000 0.00000 0.00000 ; imides
9687 9686 9693 9694 3 33.20422 0.00000 -33.20422 0.00000 0.00000 0.00000 ; methylguanidinium ion
9688 1827 1826 1825 3 1.58992 4.76976 0.00000 -6.35968 0.00000 0.00000
9688 1827 1826 1828 3 1.58992 4.76976 0.00000 -6.35968 0.00000 0.00000
9688 1827 1826 1829 3 1.58992 4.76976 0.00000 -6.35968 0.00000 0.00000
9693 9686 9687 9688 3 33.20422 0.00000 -33.20422 0.00000 0.00000 0.00000 ; methylguanidinium ion
9693 9686 9687 9691 3 20.50160 0.00000 -20.50160 0.00000 0.00000 0.00000 ; imides
9693 9694 9701 9702 3 30.28798 -4.81160 -25.47638 0.00000 0.00000 0.00000 ; imides
9694 9701 9702 9685 3 30.28798 -4.81160 -25.47638 0.00000 0.00000 0.00000 ; imides
9694 9701 9702 9703 3 33.20422 0.00000 -33.20422 0.00000 0.00000 0.00000 ; methylguanidinium ion
9695 9694 9701 9702 3 33.20422 0.00000 -33.20422 0.00000 0.00000 0.00000 ; methylguanidinium ion
9696 1736 1735 1734 3 1.58992 4.76976 0.00000 -6.35968 0.00000 0.00000
9696 1736 1735 1737 3 1.58992 4.76976 0.00000 -6.35968 0.00000 0.00000
9696 1736 1735 1738 3 1.58992 4.76976 0.00000 -6.35968 0.00000 0.00000
9701 9694 9695 9696 3 33.20422 0.00000 -33.20422 0.00000 0.00000 0.00000 ; methylguanidinium ion
9701 9694 9695 9699 3 20.50160 0.00000 -20.50160 0.00000 0.00000 0.00000 ; imides
9702 9685 9686 9687 3 33.20422 0.00000 -33.20422 0.00000 0.00000 0.00000 ; methylguanidinium ion
9702 9685 9686 9693 3 30.28798 -4.81160 -25.47638 0.00000 0.00000 0.00000 ; imides
9704 189 188 187 3 1.58992 4.76976 0.00000 -6.35968 0.00000 0.00000
9704 189 188 190 3 1.58992 4.76976 0.00000 -6.35968 0.00000 0.00000
9704 189 188 191 3 1.58992 4.76976 0.00000 -6.35968 0.00000 0.00000
9709 9710 9718 9719 3 30.28798 -4.81160 -25.47638 0.00000 0.00000 0.00000 ; imides
9709 9727 9728 9729 3 33.20422 0.00000 -33.20422 0.00000 0.00000 0.00000 ; methylguanidinium ion
9709 9727 9728 9732 3 20.50160 0.00000 -20.50160 0.00000 0.00000 0.00000 ; imides
9710 9709 9727 9726 3 30.28798 -4.81160 -25.47638 0.00000 0.00000 0.00000 ; imides
9710 9709 9727 9728 3 33.20422 0.00000 -33.20422 0.00000 0.00000 0.00000 ; methylguanidinium ion
9710 9718 9719 9720 3 33.20422 0.00000 -33.20422 0.00000 0.00000 0.00000 ; methylguanidinium ion
9710 9718 9719 9726 3 30.28798 -4.81160 -25.47638 0.00000 0.00000 0.00000 ; imides
9711 9710 9718 9719 3 33.20422 0.00000 -33.20422 0.00000 0.00000 0.00000 ; methylguanidinium ion
9712 9713 9781 9780 3 1.58992 4.76976 0.00000 -6.35968 0.00000 0.00000
9712 9713 9781 9782 3 1.58992 4.76976 0.00000 -6.35968 0.00000 0.00000
9712 9713 9781 9783 3 1.58992 4.76976 0.00000 -6.35968 0.00000 0.00000
9713 9781 9780 9779 3 1.78866 3.49154 0.53555 -5.81576 0.00000 0.00000
9713 9781 9780 9784 3 -1.26775 3.02085 1.74473 -3.49782 0.00000 0.00000
9718 9710 9711 9712 3 33.20422 0.00000 -33.20422 0.00000 0.00000 0.00000 ; methylguanidinium ion
9718 9710 9711 9716 3 20.50160 0.00000 -20.50160 0.00000 0.00000 0.00000 ; imides
9718 9719 9726 9727 3 30.28798 -4.81160 -25.47638 0.00000 0.00000 0.00000 ; imides
9719 9726 9727 9709 3 30.28798 -4.81160 -25.47638 0.00000 0.00000 0.00000 ; imides
9719 9726 9727 9728 3 33.20422 0.00000 -33.20422 0.00000 0.00000 0.00000 ; methylguanidinium ion
9720 9719 9726 9727 3 33.20422 0.00000 -33.20422 0.00000 0.00000 0.00000 ; methylguanidinium ion
9721 8100 8099 8098 3 1.58992 4.76976 0.00000 -6.35968 0.00000 0.00000
9721 8100 8099 8101 3 1.58992 4.76976 0.00000 -6.35968 0.00000 0.00000
9721 8100 8099 8102 3 1.58992 4.76976 0.00000 -6.35968 0.00000 0.00000
9726 9719 9720 9721 3 33.20422 0.00000 -33.20422 0.00000 0.00000 0.00000 ; methylguanidinium ion
9726 9719 9720 9724 3 20.50160 0.00000 -20.50160 0.00000 0.00000 0.00000 ; imides
9727 9709 9710 9711 3 33.20422 0.00000 -33.20422 0.00000 0.00000 0.00000 ; methylguanidinium ion
9727 9709 9710 9718 3 30.28798 -4.81160 -25.47638 0.00000 0.00000 0.00000 ; imides
9729 4108 4107 4106 3 1.58992 4.76976 0.00000 -6.35968 0.00000 0.00000
9729 4108 4107 4109 3 1.58992 4.76976 0.00000 -6.35968 0.00000 0.00000
9729 4108 4107 4110 3 1.58992 4.76976 0.00000 -6.35968 0.00000 0.00000
9734 9735 9742 9743 3 30.28798 -4.81160 -25.47638 0.00000 0.00000 0.00000 ; imides
9734 9752 9753 9754 3 33.20422 0.00000 -33.20422 0.00000 0.00000 0.00000 ; methylguanidinium ion
9734 9752 9753 9757 3 20.50160 0.00000 -20.50160 0.00000 0.00000 0.00000 ; imides
9735 9734 9752 9751 3 30.28798 -4.81160 -25.47638 0.00000 0.00000 0.00000 ; imides
9735 9734 9752 9753 3 33.20422 0.00000 -33.20422 0.00000 0.00000 0.00000 ; methylguanidinium ion
9735 9742 9743 9744 3 33.20422 0.00000 -33.20422 0.00000 0.00000 0.00000 ; methylguanidinium ion
9735 9742 9743 9751 3 30.28798 -4.81160 -25.47638 0.00000 0.00000 0.00000 ; imides
9736 9735 9742 9743 3 33.20422 0.00000 -33.20422 0.00000 0.00000 0.00000 ; methylguanidinium ion
9737 888 887 886 3 1.58992 4.76976 0.00000 -6.35968 0.00000 0.00000
9737 888 887 889 3 1.58992 4.76976 0.00000 -6.35968 0.00000 0.00000
9737 888 887 890 3 1.58992 4.76976 0.00000 -6.35968 0.00000 0.00000
9742 9735 9736 9737 3 33.20422 0.00000 -33.20422 0.00000 0.00000 0.00000 ; methylguanidinium ion
9742 9735 9736 9740 3 20.50160 0.00000 -20.50160 0.00000 0.00000 0.00000 ; imides
9742 9743 9751 9752 3 30.28798 -4.81160 -25.47638 0.00000 0.00000 0.00000 ; imides
9743 9751 9752 9734 3 30.28798 -4.81160 -25.47638 0.00000 0.00000 0.00000 ; imides
9743 9751 9752 9753 3 33.20422 0.00000 -33.20422 0.00000 0.00000 0.00000 ; methylguanidinium ion
9744 9743 9751 9752 3 33.20422 0.00000 -33.20422 0.00000 0.00000 0.00000 ; methylguanidinium ion
9745 9746 12626 12625 3 1.58992 4.76976 0.00000 -6.35968 0.00000 0.00000
9745 9746 12626 12627 3 1.58992 4.76976 0.00000 -6.35968 0.00000 0.00000
9745 9746 12626 12628 3 1.58992 4.76976 0.00000 -6.35968 0.00000 0.00000
9746 12626 12625 12624 3 1.78866 3.49154 0.53555 -5.81576 0.00000 0.00000
9746 12626 12625 12629 3 -1.26775 3.02085 1.74473 -3.49782 0.00000 0.00000
9751 9743 9744 9745 3 33.20422 0.00000 -33.20422 0.00000 0.00000 0.00000 ; methylguanidinium ion
9751 9743 9744 9749 3 20.50160 0.00000 -20.50160 0.00000 0.00000 0.00000 ; imides
9752 9734 9735 9736 3 33.20422 0.00000 -33.20422 0.00000 0.00000 0.00000 ; methylguanidinium ion
9752 9734 9735 9742 3 30.28798 -4.81160 -25.47638 0.00000 0.00000 0.00000 ; imides
9754 7916 7915 7914 3 1.58992 4.76976 0.00000 -6.35968 0.00000 0.00000
9754 7916 7915 7917 3 1.58992 4.76976 0.00000 -6.35968 0.00000 0.00000
9754 7916 7915 7918 3 1.58992 4.76976 0.00000 -6.35968 0.00000 0.00000
9759 9760 9769 9770 3 30.28798 -4.81160 -25.47638 0.00000 0.00000 0.00000 ; imides
9759 9779 9780 9781 3 33.20422 0.00000 -33.20422 0.00000 0.00000 0.00000 ; methylguanidinium ion
9759 9779 9780 9784 3 20.50160 0.00000 -20.50160 0.00000 0.00000 0.00000 ; imides
9760 9759 9779 9778 3 30.28798 -4.81160 -25.47638 0.00000 0.00000 0.00000 ; imides
9760 9759 9779 9780 3 33.20422 0.00000 -33.20422 0.00000 0.00000 0.00000 ; methylguanidinium ion
9760 9769 9770 9771 3 33.20422 0.00000 -33.20422 0.00000 0.00000 0.00000 ; methylguanidinium ion
9760 9769 9770 9778 3 30.28798 -4.81160 -25.47638 0.00000 0.00000 0.00000 ; imides
9761 9760 9769 9770 3 33.20422 0.00000 -33.20422 0.00000 0.00000 0.00000 ; methylguanidinium ion
9769 9760 9761 9762 3 33.20422 0.00000 -33.20422 0.00000 0.00000 0.00000 ; methylguanidinium ion
9769 9760 9761 9767 3 20.50160 0.00000 -20.50160 0.00000 0.00000 0.00000 ; imides
9769 9770 9778 9779 3 30.28798 -4.81160 -25.47638 0.00000 0.00000 0.00000 ; imides
9770 9778 9779 9759 3 30.28798 -4.81160 -25.47638 0.00000 0.00000 0.00000 ; imides
9770 9778 9779 9780 3 33.20422 0.00000 -33.20422 0.00000 0.00000 0.00000 ; methylguanidinium ion
9771 9770 9778 9779 3 33.20422 0.00000 -33.20422 0.00000 0.00000 0.00000 ; methylguanidinium ion
9772 9773 9962 9961 3 1.58992 4.76976 0.00000 -6.35968 0.00000 0.00000
9772 9773 9962 9963 3 1.58992 4.76976 0.00000 -6.35968 0.00000 0.00000
9772 9773 9962 9964 3 1.58992 4.76976 0.00000 -6.35968 0.00000 0.00000
9773 9962 9961 9960 3 1.78866 3.49154 0.53555 -5.81576 0.00000 0.00000
9773 9962 9961 9965 3 -1.26775 3.02085 1.74473 -3.49782 0.00000 0.00000
9778 9770 9771 9772 3 33.20422 0.00000 -33.20422 0.00000 0.00000 0.00000 ; methylguanidinium ion
9778 9770 9771 9776 3 20.50160 0.00000 -20.50160 0.00000 0.00000 0.00000 ; imides
9779 9759 9760 9761 3 33.20422 0.00000 -33.20422 0.00000 0.00000 0.00000 ; methylguanidinium ion
9779 9759 9760 9769 3 30.28798 -4.81160 -25.47638 0.00000 0.00000 0.00000 ; imides
9781 9713 9712 9711 3 1.58992 4.76976 0.00000 -6.35968 0.00000 0.00000
9781 9713 9712 9714 3 1.58992 4.76976 0.00000 -6.35968 0.00000 0.00000
9781 9713 9712 9715 3 1.58992 4.76976 0.00000 -6.35968 0.00000 0.00000
9786 9787 9795 9796 3 30.28798 -4.81160 -25.47638 0.00000 0.00000 0.00000 ; imides
9786 9806 9807 9808 3 33.20422 0.00000 -33.20422 0.00000 0.00000 0.00000 ; methylguanidinium ion
9786 9806 9807 9813 3 20.50160 0.00000 -20.50160 0.00000 0.00000 0.00000 ; imides
9787 9786 9806 9805 3 30.28798 -4.81160 -25.47638 0.00000 0.00000 0.00000 ; imides
9787 9786 9806 9807 3 33.20422 0.00000 -33.20422 0.00000 0.00000 0.00000 ; methylguanidinium ion
9787 9795 9796 9797 3 33.20422 0.00000 -33.20422 0.00000 0.00000 0.00000 ; methylguanidinium ion
9787 9795 9796 9805 3 30.28798 -4.81160 -25.47638 0.00000 0.00000 0.00000 ; imides
9788 9787 9795 9796 3 33.20422 0.00000 -33.20422 0.00000 0.00000 0.00000 ; methylguanidinium ion
9789 9790 12250 12249 3 1.58992 4.76976 0.00000 -6.35968 0.00000 0.00000
9789 9790 12250 12251 3 1.58992 4.76976 0.00000 -6.35968 0.00000 0.00000
9789 9790 12250 12252 3 1.58992 4.76976 0.00000 -6.35968 0.00000 0.00000
9790 12250 12249 12248 3 1.78866 3.49154 0.53555 -5.81576 0.00000 0.00000
9790 12250 12249 12253 3 -1.26775 3.02085 1.74473 -3.49782 0.00000 0.00000
9795 9787 9788 9789 3 33.20422 0.00000 -33.20422 0.00000 0.00000 0.00000 ; methylguanidinium ion
9795 9787 9788 9793 3 20.50160 0.00000 -20.50160 0.00000 0.00000 0.00000 ; imides
9795 9796 9805 9806 3 30.28798 -4.81160 -25.47638 0.00000 0.00000 0.00000 ; imides
9796 9805 9806 9786 3 30.28798 -4.81160 -25.47638 0.00000 0.00000 0.00000 ; imides
9796 9805 9806 9807 3 33.20422 0.00000 -33.20422 0.00000 0.00000 0.00000 ; methylguanidinium ion
9797 9796 9805 9806 3 33.20422 0.00000 -33.20422 0.00000 0.00000 0.00000 ; methylguanidinium ion
9805 9796 9797 9798 3 33.20422 0.00000 -33.20422 0.00000 0.00000 0.00000 ; methylguanidinium ion
9805 9796 9797 9803 3 20.50160 0.00000 -20.50160 0.00000 0.00000 0.00000 ; imides
9806 9786 9787 9788 3 33.20422 0.00000 -33.20422 0.00000 0.00000 0.00000 ; methylguanidinium ion
9806 9786 9787 9795 3 30.28798 -4.81160 -25.47638 0.00000 0.00000 0.00000 ; imides
9815 9816 9824 9825 3 30.28798 -4.81160 -25.47638 0.00000 0.00000 0.00000 ; imides
9815 9834 9835 9836 3 33.20422 0.00000 -33.20422 0.00000 0.00000 0.00000 ; methylguanidinium ion
9815 9834 9835 9839 3 20.50160 0.00000 -20.50160 0.00000 0.00000 0.00000 ; imides
9816 9815 9834 9833 3 30.28798 -4.81160 -25.47638 0.00000 0.00000 0.00000 ; imides
9816 9815 9834 9835 3 33.20422 0.00000 -33.20422 0.00000 0.00000 0.00000 ; methylguanidinium ion
9816 9824 9825 9826 3 33.20422 0.00000 -33.20422 0.00000 0.00000 0.00000 ; methylguanidinium ion
9816 9824 9825 9833 3 30.28798 -4.81160 -25.47638 0.00000 0.00000 0.00000 ; imides
9817 9816 9824 9825 3 33.20422 0.00000 -33.20422 0.00000 0.00000 0.00000 ; methylguanidinium ion
9818 9819 9921 9920 3 1.58992 4.76976 0.00000 -6.35968 0.00000 0.00000
9818 9819 9921 9922 3 1.58992 4.76976 0.00000 -6.35968 0.00000 0.00000
9818 9819 9921 9923 3 1.58992 4.76976 0.00000 -6.35968 0.00000 0.00000
9819 9921 9920 9919 3 1.78866 3.49154 0.53555 -5.81576 0.00000 0.00000
9819 9921 9920 9924 3 -1.26775 3.02085 1.74473 -3.49782 0.00000 0.00000
9824 9816 9817 9818 3 33.20422 0.00000 -33.20422 0.00000 0.00000 0.00000 ; methylguanidinium ion
9824 9816 9817 9822 3 20.50160 0.00000 -20.50160 0.00000 0.00000 0.00000 ; imides
9824 9825 9833 9834 3 30.28798 -4.81160 -25.47638 0.00000 0.00000 0.00000 ; imides
9825 9833 9834 9815 3 30.28798 -4.81160 -25.47638 0.00000 0.00000 0.00000 ; imides
9825 9833 9834 9835 3 33.20422 0.00000 -33.20422 0.00000 0.00000 0.00000 ; methylguanidinium ion
9826 9825 9833 9834 3 33.20422 0.00000 -33.20422 0.00000 0.00000 0.00000 ; methylguanidinium ion
9827 9828 11898 11897 3 1.58992 4.76976 0.00000 -6.35968 0.00000 0.00000
9827 9828 11898 11899 3 1.58992 4.76976 0.00000 -6.35968 0.00000 0.00000
9827 9828 11898 11900 3 1.58992 4.76976 0.00000 -6.35968 0.00000 0.00000
9828 11898 11897 11896 3 1.78866 3.49154 0.53555 -5.81576 0.00000 0.00000
9828 11898 11897 11901 3 -1.26775 3.02085 1.74473 -3.49782 0.00000 0.00000
9833 9825 9826 9827 3 33.20422 0.00000 -33.20422 0.00000 0.00000 0.00000 ; methylguanidinium ion
9833 9825 9826 9831 3 20.50160 0.00000 -20.50160 0.00000 0.00000 0.00000 ; imides
9834 9815 9816 9817 3 33.20422 0.00000 -33.20422 0.00000 0.00000 0.00000 ; methylguanidinium ion
9834 9815 9816 9824 3 30.28798 -4.81160 -25.47638 0.00000 0.00000 0.00000 ; imides
9836 1145 1144 1143 3 1.58992 4.76976 0.00000 -6.35968 0.00000 0.00000
9836 1145 1144 1146 3 1.58992 4.76976 0.00000 -6.35968 0.00000 0.00000
9836 1145 1144 1147 3 1.58992 4.76976 0.00000 -6.35968 0.00000 0.00000
9841 9842 9850 9851 3 30.28798 -4.81160 -25.47638 0.00000 0.00000 0.00000 ; imides
9841 9859 9860 9861 3 33.20422 0.00000 -33.20422 0.00000 0.00000 0.00000 ; methylguanidinium ion
9841 9859 9860 9865 3 20.50160 0.00000 -20.50160 0.00000 0.00000 0.00000 ; imides
9842 9841 9859 9858 3 30.28798 -4.81160 -25.47638 0.00000 0.00000 0.00000 ; imides
9842 9841 9859 9860 3 33.20422 0.00000 -33.20422 0.00000 0.00000 0.00000 ; methylguanidinium ion
9842 9850 9851 9852 3 33.20422 0.00000 -33.20422 0.00000 0.00000 0.00000 ; methylguanidinium ion
9842 9850 9851 9858 3 30.28798 -4.81160 -25.47638 0.00000 0.00000 0.00000 ; imides
9843 9842 9850 9851 3 33.20422 0.00000 -33.20422 0.00000 0.00000 0.00000 ; methylguanidinium ion
9844 9845 12562 12561 3 1.58992 4.76976 0.00000 -6.35968 0.00000 0.00000
9844 9845 12562 12563 3 1.58992 4.76976 0.00000 -6.35968 0.00000 0.00000
9844 9845 12562 12564 3 1.58992 4.76976 0.00000 -6.35968 0.00000 0.00000
9845 12562 12561 12560 3 1.78866 3.49154 0.53555 -5.81576 0.00000 0.00000
9845 12562 12561 12565 3 -1.26775 3.02085 1.74473 -3.49782 0.00000 0.00000
9850 9842 9843 9844 3 33.20422 0.00000 -33.20422 0.00000 0.00000 0.00000 ; methylguanidinium ion
9850 9842 9843 9848 3 20.50160 0.00000 -20.50160 0.00000 0.00000 0.00000 ; imides
9850 9851 9858 9859 3 30.28798 -4.81160 -25.47638 0.00000 0.00000 0.00000 ; imides
9851 9858 9859 9841 3 30.28798 -4.81160 -25.47638 0.00000 0.00000 0.00000 ; imides
9851 9858 9859 9860 3 33.20422 0.00000 -33.20422 0.00000 0.00000 0.00000 ; methylguanidinium ion
9852 9851 9858 9859 3 33.20422 0.00000 -33.20422 0.00000 0.00000 0.00000 ; methylguanidinium ion
9853 1036 1035 1034 3 1.58992 4.76976 0.00000 -6.35968 0.00000 0.00000
9853 1036 1035 1037 3 1.58992 4.76976 0.00000 -6.35968 0.00000 0.00000
9853 1036 1035 1038 3 1.58992 4.76976 0.00000 -6.35968 0.00000 0.00000
9858 9851 9852 9853 3 33.20422 0.00000 -33.20422 0.00000 0.00000 0.00000 ; methylguanidinium ion
9858 9851 9852 9856 3 20.50160 0.00000 -20.50160 0.00000 0.00000 0.00000 ; imides
9859 9841 9842 9843 3 33.20422 0.00000 -33.20422 0.00000 0.00000 0.00000 ; methylguanidinium ion
9859 9841 9842 9850 3 30.28798 -4.81160 -25.47638 0.00000 0.00000 0.00000 ; imides
9861 9862 11288 11287 3 1.58992 4.76976 0.00000 -6.35968 0.00000 0.00000
9861 9862 11288 11289 3 1.58992 4.76976 0.00000 -6.35968 0.00000 0.00000
9861 9862 11288 11290 3 1.58992 4.76976 0.00000 -6.35968 0.00000 0.00000
9862 11288 11287 11286 3 1.78866 3.49154 0.53555 -5.81576 0.00000 0.00000
9862 11288 11287 11291 3 -1.26775 3.02085 1.74473 -3.49782 0.00000 0.00000
9867 9868 9875 9876 3 30.28798 -4.81160 -25.47638 0.00000 0.00000 0.00000 ; imides
9867 9886 9887 9888 3 33.20422 0.00000 -33.20422 0.00000 0.00000 0.00000 ; methylguanidinium ion
9867 9886 9887 9891 3 20.50160 0.00000 -20.50160 0.00000 0.00000 0.00000 ; imides
9868 9867 9886 9885 3 30.28798 -4.81160 -25.47638 0.00000 0.00000 0.00000 ; imides
9868 9867 9886 9887 3 33.20422 0.00000 -33.20422 0.00000 0.00000 0.00000 ; methylguanidinium ion
9868 9875 9876 9877 3 33.20422 0.00000 -33.20422 0.00000 0.00000 0.00000 ; methylguanidinium ion
9868 9875 9876 9885 3 30.28798 -4.81160 -25.47638 0.00000 0.00000 0.00000 ; imides
9869 9868 9875 9876 3 33.20422 0.00000 -33.20422 0.00000 0.00000 0.00000 ; methylguanidinium ion
9870 2776 2775 2774 3 1.58992 4.76976 0.00000 -6.35968 0.00000 0.00000
9870 2776 2775 2777 3 1.58992 4.76976 0.00000 -6.35968 0.00000 0.00000
9870 2776 2775 2778 3 1.58992 4.76976 0.00000 -6.35968 0.00000 0.00000
9875 9868 9869 9870 3 33.20422 0.00000 -33.20422 0.00000 0.00000 0.00000 ; methylguanidinium ion
9875 9868 9869 9873 3 20.50160 0.00000 -20.50160 0.00000 0.00000 0.00000 ; imides
9875 9876 9885 9886 3 30.28798 -4.81160 -25.47638 0.00000 0.00000 0.00000 ; imides
9876 9885 9886 9867 3 30.28798 -4.81160 -25.47638 0.00000 0.00000 0.00000 ; imides
9876 9885 9886 9887 3 33.20422 0.00000 -33.20422 0.00000 0.00000 0.00000 ; methylguanidinium ion
9877 9876 9885 9886 3 33.20422 0.00000 -33.20422 0.00000 0.00000 0.00000 ; methylguanidinium ion
9885 9876 9877 9878 3 33.20422 0.00000 -33.20422 0.00000 0.00000 0.00000 ; methylguanidinium ion
9885 9876 9877 9883 3 20.50160 0.00000 -20.50160 0.00000 0.00000 0.00000 ; imides
9886 9867 9868 9869 3 33.20422 0.00000 -33.20422 0.00000 0.00000 0.00000 ; methylguanidinium ion
9886 9867 9868 9875 3 30.28798 -4.81160 -25.47638 0.00000 0.00000 0.00000 ; imides
9888 6893 6892 6891 3 1.58992 4.76976 0.00000 -6.35968 0.00000 0.00000
9888 6893 6892 6894 3 1.58992 4.76976 0.00000 -6.35968 0.00000 0.00000
9888 6893 6892 6895 3 1.58992 4.76976 0.00000 -6.35968 0.00000 0.00000
9893 9894 9901 9902 3 30.28798 -4.81160 -25.47638 0.00000 0.00000 0.00000 ; imides
9893 9910 9911 9912 3 33.20422 0.00000 -33.20422 0.00000 0.00000 0.00000 ; methylguanidinium ion
9893 9910 9911 9916 3 20.50160 0.00000 -20.50160 0.00000 0.00000 0.00000 ; imides
9894 9893 9910 9909 3 30.28798 -4.81160 -25.47638 0.00000 0.00000 0.00000 ; imides
9894 9893 9910 9911 3 33.20422 0.00000 -33.20422 0.00000 0.00000 0.00000 ; methylguanidinium ion
9894 9901 9902 9903 3 33.20422 0.00000 -33.20422 0.00000 0.00000 0.00000 ; methylguanidinium ion
9894 9901 9902 9909 3 30.28798 -4.81160 -25.47638 0.00000 0.00000 0.00000 ; imides
9895 9894 9901 9902 3 33.20422 0.00000 -33.20422 0.00000 0.00000 0.00000 ; methylguanidinium ion
9896 2229 2228 2227 3 1.58992 4.76976 0.00000 -6.35968 0.00000 0.00000
9896 2229 2228 2230 3 1.58992 4.76976 0.00000 -6.35968 0.00000 0.00000
9896 2229 2228 2231 3 1.58992 4.76976 0.00000 -6.35968 0.00000 0.00000
9901 9894 9895 9896 3 33.20422 0.00000 -33.20422 0.00000 0.00000 0.00000 ; methylguanidinium ion
9901 9894 9895 9899 3 20.50160 0.00000 -20.50160 0.00000 0.00000 0.00000 ; imides
9901 9902 9909 9910 3 30.28798 -4.81160 -25.47638 0.00000 0.00000 0.00000 ; imides
9902 9909 9910 9893 3 30.28798 -4.81160 -25.47638 0.00000 0.00000 0.00000 ; imides
9902 9909 9910 9911 3 33.20422 0.00000 -33.20422 0.00000 0.00000 0.00000 ; methylguanidinium ion
9903 9902 9909 9910 3 33.20422 0.00000 -33.20422 0.00000 0.00000 0.00000 ; methylguanidinium ion
9904 5162 5161 5160 3 1.58992 4.76976 0.00000 -6.35968 0.00000 0.00000
9904 5162 5161 5163 3 1.58992 4.76976 0.00000 -6.35968 0.00000 0.00000
9904 5162 5161 5164 3 1.58992 4.76976 0.00000 -6.35968 0.00000 0.00000
9909 9902 9903 9904 3 33.20422 0.00000 -33.20422 0.00000 0.00000 0.00000 ; methylguanidinium ion
9909 9902 9903 9907 3 20.50160 0.00000 -20.50160 0.00000 0.00000 0.00000 ; imides
9910 9893 9894 9895 3 33.20422 0.00000 -33.20422 0.00000 0.00000 0.00000 ; methylguanidinium ion
9910 9893 9894 9901 3 30.28798 -4.81160 -25.47638 0.00000 0.00000 0.00000 ; imides
9912 9913 12224 12223 3 1.58992 4.76976 0.00000 -6.35968 0.00000 0.00000
9912 9913 12224 12225 3 1.58992 4.76976 0.00000 -6.35968 0.00000 0.00000
9912 9913 12224 12226 3 1.58992 4.76976 0.00000 -6.35968 0.00000 0.00000
9913 12224 12223 12222 3 1.78866 3.49154 0.53555 -5.81576 0.00000 0.00000
9913 12224 12223 12227 3 -1.26775 3.02085 1.74473 -3.49782 0.00000 0.00000
9918 9919 9926 9927 3 30.28798 -4.81160 -25.47638 0.00000 0.00000 0.00000 ; imides
9918 9935 9936 9937 3 33.20422 0.00000 -33.20422 0.00000 0.00000 0.00000 ; methylguanidinium ion
9918 9935 9936 9941 3 20.50160 0.00000 -20.50160 0.00000 0.00000 0.00000 ; imides
9919 9918 9935 9934 3 30.28798 -4.81160 -25.47638 0.00000 0.00000 0.00000 ; imides
9919 9918 9935 9936 3 33.20422 0.00000 -33.20422 0.00000 0.00000 0.00000 ; methylguanidinium ion
9919 9926 9927 9928 3 33.20422 0.00000 -33.20422 0.00000 0.00000 0.00000 ; methylguanidinium ion
9919 9926 9927 9934 3 30.28798 -4.81160 -25.47638 0.00000 0.00000 0.00000 ; imides
9920 9919 9926 9927 3 33.20422 0.00000 -33.20422 0.00000 0.00000 0.00000 ; methylguanidinium ion
9921 9819 9818 9817 3 1.58992 4.76976 0.00000 -6.35968 0.00000 0.00000
9921 9819 9818 9820 3 1.58992 4.76976 0.00000 -6.35968 0.00000 0.00000
9921 9819 9818 9821 3 1.58992 4.76976 0.00000 -6.35968 0.00000 0.00000
9926 9919 9920 9921 3 33.20422 0.00000 -33.20422 0.00000 0.00000 0.00000 ; methylguanidinium ion
9926 9919 9920 9924 3 20.50160 0.00000 -20.50160 0.00000 0.00000 0.00000 ; imides
9926 9927 9934 9935 3 30.28798 -4.81160 -25.47638 0.00000 0.00000 0.00000 ; imides
9927 9934 9935 9918 3 30.28798 -4.81160 -25.47638 0.00000 0.00000 0.00000 ; imides
9927 9934 9935 9936 3 33.20422 0.00000 -33.20422 0.00000 0.00000 0.00000 ; methylguanidinium ion
9928 9927 9934 9935 3 33.20422 0.00000 -33.20422 0.00000 0.00000 0.00000 ; methylguanidinium ion
9929 8751 8750 8749 3 1.58992 4.76976 0.00000 -6.35968 0.00000 0.00000
9929 8751 8750 8752 3 1.58992 4.76976 0.00000 -6.35968 0.00000 0.00000
9929 8751 8750 8753 3 1.58992 4.76976 0.00000 -6.35968 0.00000 0.00000
9934 9927 9928 9929 3 33.20422 0.00000 -33.20422 0.00000 0.00000 0.00000 ; methylguanidinium ion
9934 9927 9928 9932 3 20.50160 0.00000 -20.50160 0.00000 0.00000 0.00000 ; imides
9935 9918 9919 9920 3 33.20422 0.00000 -33.20422 0.00000 0.00000 0.00000 ; methylguanidinium ion
9935 9918 9919 9926 3 30.28798 -4.81160 -25.47638 0.00000 0.00000 0.00000 ; imides
9937 9938 12828 12827 3 1.58992 4.76976 0.00000 -6.35968 0.00000 0.00000
9937 9938 12828 12829 3 1.58992 4.76976 0.00000 -6.35968 0.00000 0.00000
9937 9938 12828 12830 3 1.58992 4.76976 0.00000 -6.35968 0.00000 0.00000
9938 12828 12827 12826 3 1.78866 3.49154 0.53555 -5.81576 0.00000 0.00000
9938 12828 12827 12831 3 -1.26775 3.02085 1.74473 -3.49782 0.00000 0.00000
9943 9944 9951 9952 3 30.28798 -4.81160 -25.47638 0.00000 0.00000 0.00000 ; imides
9943 9960 9961 9962 3 33.20422 0.00000 -33.20422 0.00000 0.00000 0.00000 ; methylguanidinium ion
9943 9960 9961 9965 3 20.50160 0.00000 -20.50160 0.00000 0.00000 0.00000 ; imides
9944 9943 9960 9959 3 30.28798 -4.81160 -25.47638 0.00000 0.00000 0.00000 ; imides
9944 9943 9960 9961 3 33.20422 0.00000 -33.20422 0.00000 0.00000 0.00000 ; methylguanidinium ion
9944 9951 9952 9953 3 33.20422 0.00000 -33.20422 0.00000 0.00000 0.00000 ; methylguanidinium ion
9944 9951 9952 9959 3 30.28798 -4.81160 -25.47638 0.00000 0.00000 0.00000 ; imides
9945 9944 9951 9952 3 33.20422 0.00000 -33.20422 0.00000 0.00000 0.00000 ; methylguanidinium ion
9946 7556 7555 7554 3 1.58992 4.76976 0.00000 -6.35968 0.00000 0.00000
9946 7556 7555 7557 3 1.58992 4.76976 0.00000 -6.35968 0.00000 0.00000
9946 7556 7555 7558 3 1.58992 4.76976 0.00000 -6.35968 0.00000 0.00000
9951 9944 9945 9946 3 33.20422 0.00000 -33.20422 0.00000 0.00000 0.00000 ; methylguanidinium ion
9951 9944 9945 9949 3 20.50160 0.00000 -20.50160 0.00000 0.00000 0.00000 ; imides
9951 9952 9959 9960 3 30.28798 -4.81160 -25.47638 0.00000 0.00000 0.00000 ; imides
9952 9959 9960 9943 3 30.28798 -4.81160 -25.47638 0.00000 0.00000 0.00000 ; imides
9952 9959 9960 9961 3 33.20422 0.00000 -33.20422 0.00000 0.00000 0.00000 ; methylguanidinium ion
9953 9952 9959 9960 3 33.20422 0.00000 -33.20422 0.00000 0.00000 0.00000 ; methylguanidinium ion
9954 1342 1341 1340 3 1.58992 4.76976 0.00000 -6.35968 0.00000 0.00000
9954 1342 1341 1343 3 1.58992 4.76976 0.00000 -6.35968 0.00000 0.00000
9954 1342 1341 1344 3 1.58992 4.76976 0.00000 -6.35968 0.00000 0.00000
9959 9952 9953 9954 3 33.20422 0.00000 -33.20422 0.00000 0.00000 0.00000 ; methylguanidinium ion
9959 9952 9953 9957 3 20.50160 0.00000 -20.50160 0.00000 0.00000 0.00000 ; imides
9960 9943 9944 9945 3 33.20422 0.00000 -33.20422 0.00000 0.00000 0.00000 ; methylguanidinium ion
9960 9943 9944 9951 3 30.28798 -4.81160 -25.47638 0.00000 0.00000 0.00000 ; imides
9962 9773 9772 9771 3 1.58992 4.76976 0.00000 -6.35968 0.00000 0.00000
9962 9773 9772 9774 3 1.58992 4.76976 0.00000 -6.35968 0.00000 0.00000
9962 9773 9772 9775 3 1.58992 4.76976 0.00000 -6.35968 0.00000 0.00000
9967 9968 9975 9976 3 30.28798 -4.81160 -25.47638 0.00000 0.00000 0.00000 ; imides
9967 9984 9985 9986 3 33.20422 0.00000 -33.20422 0.00000 0.00000 0.00000 ; methylguanidinium ion
9967 9984 9985 9990 3 20.50160 0.00000 -20.50160 0.00000 0.00000 0.00000 ; imides
9968 9967 9984 9983 3 30.28798 -4.81160 -25.47638 0.00000 0.00000 0.00000 ; imides
9968 9967 9984 9985 3 33.20422 0.00000 -33.20422 0.00000 0.00000 0.00000 ; methylguanidinium ion
9968 9975 9976 9977 3 33.20422 0.00000 -33.20422 0.00000 0.00000 0.00000 ; methylguanidinium ion
9968 9975 9976 9983 3 30.28798 -4.81160 -25.47638 0.00000 0.00000 0.00000 ; imides
9969 9968 9975 9976 3 33.20422 0.00000 -33.20422 0.00000 0.00000 0.00000 ; methylguanidinium ion
9970 9317 9316 9315 3 1.58992 4.76976 0.00000 -6.35968 0.00000 0.00000
9970 9317 9316 9318 3 1.58992 4.76976 0.00000 -6.35968 0.00000 0.00000
9970 9317 9316 9319 3 1.58992 4.76976 0.00000 -6.35968 0.00000 0.00000
9975 9968 9969 9970 3 33.20422 0.00000 -33.20422 0.00000 0.00000 0.00000 ; methylguanidinium ion
9975 9968 9969 9973 3 20.50160 0.00000 -20.50160 0.00000 0.00000 0.00000 ; imides
9975 9976 9983 9984 3 30.28798 -4.81160 -25.47638 0.00000 0.00000 0.00000 ; imides
9976 9983 9984 9967 3 30.28798 -4.81160 -25.47638 0.00000 0.00000 0.00000 ; imides
9976 9983 9984 9985 3 33.20422 0.00000 -33.20422 0.00000 0.00000 0.00000 ; methylguanidinium ion
9977 9976 9983 9984 3 33.20422 0.00000 -33.20422 0.00000 0.00000 0.00000 ; methylguanidinium ion
9978 5018 5017 5016 3 1.58992 4.76976 0.00000 -6.35968 0.00000 0.00000
9978 5018 5017 5019 3 1.58992 4.76976 0.00000 -6.35968 0.00000 0.00000
9978 5018 5017 5020 3 1.58992 4.76976 0.00000 -6.35968 0.00000 0.00000
9983 9976 9977 9978 3 33.20422 0.00000 -33.20422 0.00000 0.00000 0.00000 ; methylguanidinium ion
9983 9976 9977 9981 3 20.50160 0.00000 -20.50160 0.00000 0.00000 0.00000 ; imides
9984 9967 9968 9969 3 33.20422 0.00000 -33.20422 0.00000 0.00000 0.00000 ; methylguanidinium ion
9984 9967 9968 9975 3 30.28798 -4.81160 -25.47638 0.00000 0.00000 0.00000 ; imides
9986 9987 10860 10859 3 1.58992 4.76976 0.00000 -6.35968 0.00000 0.00000
9986 9987 10860 10861 3 1.58992 4.76976 0.00000 -6.35968 0.00000 0.00000
9986 9987 10860 10862 3 1.58992 4.76976 0.00000 -6.35968 0.00000 0.00000
9987 10860 10859 10858 3 1.78866 3.49154 0.53555 -5.81576 0.00000 0.00000
9987 10860 10859 10863 3 -1.26775 3.02085 1.74473 -3.49782 0.00000 0.00000
9992 9993 10000 10001 3 30.28798 -4.81160 -25.47638 0.00000 0.00000 0.00000 ; imides
9992 10010 10011 10012 3 33.20422 0.00000 -33.20422 0.00000 0.00000 0.00000 ; methylguanidinium ion
9992 10010 10011 10015 3 20.50160 0.00000 -20.50160 0.00000 0.00000 0.00000 ; imides
9993 9992 10010 10009 3 30.28798 -4.81160 -25.47638 0.00000 0.00000 0.00000 ; imides
9993 9992 10010 10011 3 33.20422 0.00000 -33.20422 0.00000 0.00000 0.00000 ; methylguanidinium ion
9993 10000 10001 10002 3 33.20422 0.00000 -33.20422 0.00000 0.00000 0.00000 ; methylguanidinium ion
9993 10000 10001 10009 3 30.28798 -4.81160 -25.47638 0.00000 0.00000 0.00000 ; imides
9994 9993 10000 10001 3 33.20422 0.00000 -33.20422 0.00000 0.00000 0.00000 ; methylguanidinium ion
9995 6457 6456 6455 3 1.58992 4.76976 0.00000 -6.35968 0.00000 0.00000
9995 6457 6456 6458 3 1.58992 4.76976 0.00000 -6.35968 0.00000 0.00000
9995 6457 6456 6459 3 1.58992 4.76976 0.00000 -6.35968 0.00000 0.00000
10000 9993 9994 9995 3 33.20422 0.00000 -33.20422 0.00000 0.00000 0.00000 ; methylguanidinium ion
10000 9993 9994 9998 3 20.50160 0.00000 -20.50160 0.00000 0.00000 0.00000 ; imides
10000 10001 10009 10010 3 30.28798 -4.81160 -25.47638 0.00000 0.00000 0.00000 ; imides
10001 10009 10010 9992 3 30.28798 -4.81160 -25.47638 0.00000 0.00000 0.00000 ; imides
10001 10009 10010 10011 3 33.20422 0.00000 -33.20422 0.00000 0.00000 0.00000 ; methylguanidinium ion
10002 10001 10009 10010 3 33.20422 0.00000 -33.20422 0.00000 0.00000 0.00000 ; methylguanidinium ion
10003 10004 11368 11367 3 1.58992 4.76976 0.00000 -6.35968 0.00000 0.00000
10003 10004 11368 11369 3 1.58992 4.76976 0.00000 -6.35968 0.00000 0.00000
10003 10004 11368 11370 3 1.58992 4.76976 0.00000 -6.35968 0.00000 0.00000
10004 11368 11367 11366 3 1.78866 3.49154 0.53555 -5.81576 0.00000 0.00000
10004 11368 11367 11371 3 -1.26775 3.02085 1.74473 -3.49782 0.00000 0.00000
10009 10001 10002 10003 3 33.20422 0.00000 -33.20422 0.00000 0.00000 0.00000 ; methylguanidinium ion
10009 10001 10002 10007 3 20.50160 0.00000 -20.50160 0.00000 0.00000 0.00000 ; imides
10010 9992 9993 9994 3 33.20422 0.00000 -33.20422 0.00000 0.00000 0.00000 ; methylguanidinium ion
10010 9992 9993 10000 3 30.28798 -4.81160 -25.47638 0.00000 0.00000 0.00000 ; imides
10012 9484 9483 9482 3 1.58992 4.76976 0.00000 -6.35968 0.00000 0.00000
10012 9484 9483 9485 3 1.58992 4.76976 0.00000 -6.35968 0.00000 0.00000
10012 9484 9483 9486 3 1.58992 4.76976 0.00000 -6.35968 0.00000 0.00000
10017 10018 10025 10026 3 30.28798 -4.81160 -25.47638 0.00000 0.00000 0.00000 ; imides
10017 10034 10035 10036 3 33.20422 0.00000 -33.20422 0.00000 0.00000 0.00000 ; methylguanidinium ion
10017 10034 10035 10040 3 20.50160 0.00000 -20.50160 0.00000 0.00000 0.00000 ; imides
10018 10017 10034 10033 3 30.28798 -4.81160 -25.47638 0.00000 0.00000 0.00000 ; imides
10018 10017 10034 10035 3 33.20422 0.00000 -33.20422 0.00000 0.00000 0.00000 ; methylguanidinium ion
10018 10025 10026 10027 3 33.20422 0.00000 -33.20422 0.00000 0.00000 0.00000 ; methylguanidinium ion
10018 10025 10026 10033 3 30.28798 -4.81160 -25.47638 0.00000 0.00000 0.00000 ; imides
10019 10018 10025 10026 3 33.20422 0.00000 -33.20422 0.00000 0.00000 0.00000 ; methylguanidinium ion
10020 1594 1593 1592 3 1.58992 4.76976 0.00000 -6.35968 0.00000 0.00000
10020 1594 1593 1595 3 1.58992 4.76976 0.00000 -6.35968 0.00000 0.00000
10020 1594 1593 1596 3 1.58992 4.76976 0.00000 -6.35968 0.00000 0.00000
10025 10018 10019 10020 3 33.20422 0.00000 -33.20422 0.00000 0.00000 0.00000 ; methylguanidinium ion
10025 10018 10019 10023 3 20.50160 0.00000 -20.50160 0.00000 0.00000 0.00000 ; imides
10025 10026 10033 10034 3 30.28798 -4.81160 -25.47638 0.00000 0.00000 0.00000 ; imides
10026 10033 10034 10017 3 30.28798 -4.81160 -25.47638 0.00000 0.00000 0.00000 ; imides
10026 10033 10034 10035 3 33.20422 0.00000 -33.20422 0.00000 0.00000 0.00000 ; methylguanidinium ion
10027 10026 10033 10034 3 33.20422 0.00000 -33.20422 0.00000 0.00000 0.00000 ; methylguanidinium ion
10028 2155 2154 2153 3 1.58992 4.76976 0.00000 -6.35968 0.00000 0.00000
10028 2155 2154 2156 3 1.58992 4.76976 0.00000 -6.35968 0.00000 0.00000
10028 2155 2154 2157 3 1.58992 4.76976 0.00000 -6.35968 0.00000 0.00000
10033 10026 10027 10028 3 33.20422 0.00000 -33.20422 0.00000 0.00000 0.00000 ; methylguanidinium ion
10033 10026 10027 10031 3 20.50160 0.00000 -20.50160 0.00000 0.00000 0.00000 ; imides
10034 10017 10018 10019 3 33.20422 0.00000 -33.20422 0.00000 0.00000 0.00000 ; methylguanidinium ion
10034 10017 10018 10025 3 30.28798 -4.81160 -25.47638 0.00000 0.00000 0.00000 ; imides
10036 10037 12846 12845 3 1.58992 4.76976 0.00000 -6.35968 0.00000 0.00000
10036 10037 12846 12847 3 1.58992 4.76976 0.00000 -6.35968 0.00000 0.00000
10036 10037 12846 12848 3 1.58992 4.76976 0.00000 -6.35968 0.00000 0.00000
10037 12846 12845 12844 3 1.78866 3.49154 0.53555 -5.81576 0.00000 0.00000
10037 12846 12845 12849 3 -1.26775 3.02085 1.74473 -3.49782 0.00000 0.00000
10042 10043 10050 10051 3 30.28798 -4.81160 -25.47638 0.00000 0.00000 0.00000 ; imides
10042 10059 10060 10061 3 33.20422 0.00000 -33.20422 0.00000 0.00000 0.00000 ; methylguanidinium ion
10042 10059 10060 10064 3 20.50160 0.00000 -20.50160 0.00000 0.00000 0.00000 ; imides
10043 10042 10059 10058 3 30.28798 -4.81160 -25.47638 0.00000 0.00000 0.00000 ; imides
10043 10042 10059 10060 3 33.20422 0.00000 -33.20422 0.00000 0.00000 0.00000 ; methylguanidinium ion
10043 10050 10051 10052 3 33.20422 0.00000 -33.20422 0.00000 0.00000 0.00000 ; methylguanidinium ion
10043 10050 10051 10058 3 30.28798 -4.81160 -25.47638 0.00000 0.00000 0.00000 ; imides
10044 10043 10050 10051 3 33.20422 0.00000 -33.20422 0.00000 0.00000 0.00000 ; methylguanidinium ion
10045 3958 3957 3956 3 1.58992 4.76976 0.00000 -6.35968 0.00000 0.00000
10045 3958 3957 3959 3 1.58992 4.76976 0.00000 -6.35968 0.00000 0.00000
10045 3958 3957 3960 3 1.58992 4.76976 0.00000 -6.35968 0.00000 0.00000
10050 10043 10044 10045 3 33.20422 0.00000 -33.20422 0.00000 0.00000 0.00000 ; methylguanidinium ion
10050 10043 10044 10048 3 20.50160 0.00000 -20.50160 0.00000 0.00000 0.00000 ; imides
10050 10051 10058 10059 3 30.28798 -4.81160 -25.47638 0.00000 0.00000 0.00000 ; imides
10051 10058 10059 10042 3 30.28798 -4.81160 -25.47638 0.00000 0.00000 0.00000 ; imides
10051 10058 10059 10060 3 33.20422 0.00000 -33.20422 0.00000 0.00000 0.00000 ; methylguanidinium ion
10052 10051 10058 10059 3 33.20422 0.00000 -33.20422 0.00000 0.00000 0.00000 ; methylguanidinium ion
10053 3647 3646 3645 3 1.58992 4.76976 0.00000 -6.35968 0.00000 0.00000
10053 3647 3646 3648 3 1.58992 4.76976 0.00000 -6.35968 0.00000 0.00000
10053 3647 3646 3649 3 1.58992 4.76976 0.00000 -6.35968 0.00000 0.00000
10058 10051 10052 10053 3 33.20422 0.00000 -33.20422 0.00000 0.00000 0.00000 ; methylguanidinium ion
10058 10051 10052 10056 3 20.50160 0.00000 -20.50160 0.00000 0.00000 0.00000 ; imides
10059 10042 10043 10044 3 33.20422 0.00000 -33.20422 0.00000 0.00000 0.00000 ; methylguanidinium ion
10059 10042 10043 10050 3 30.28798 -4.81160 -25.47638 0.00000 0.00000 0.00000 ; imides
10061 6704 6703 6702 3 1.58992 4.76976 0.00000 -6.35968 0.00000 0.00000
10061 6704 6703 6705 3 1.58992 4.76976 0.00000 -6.35968 0.00000 0.00000
10061 6704 6703 6706 3 1.58992 4.76976 0.00000 -6.35968 0.00000 0.00000
10066 10067 10075 10076 3 30.28798 -4.81160 -25.47638 0.00000 0.00000 0.00000 ; imides
10066 10084 10085 10086 3 33.20422 0.00000 -33.20422 0.00000 0.00000 0.00000 ; methylguanidinium ion
10066 10084 10085 10089 3 20.50160 0.00000 -20.50160 0.00000 0.00000 0.00000 ; imides
10067 10066 10084 10083 3 30.28798 -4.81160 -25.47638 0.00000 0.00000 0.00000 ; imides
10067 10066 10084 10085 3 33.20422 0.00000 -33.20422 0.00000 0.00000 0.00000 ; methylguanidinium ion
10067 10075 10076 10077 3 33.20422 0.00000 -33.20422 0.00000 0.00000 0.00000 ; methylguanidinium ion
10067 10075 10076 10083 3 30.28798 -4.81160 -25.47638 0.00000 0.00000 0.00000 ; imides
10068 10067 10075 10076 3 33.20422 0.00000 -33.20422 0.00000 0.00000 0.00000 ; methylguanidinium ion
10069 10070 10175 10174 3 1.58992 4.76976 0.00000 -6.35968 0.00000 0.00000
10069 10070 10175 10176 3 1.58992 4.76976 0.00000 -6.35968 0.00000 0.00000
10069 10070 10175 10177 3 1.58992 4.76976 0.00000 -6.35968 0.00000 0.00000
10070 10175 10174 10173 3 1.78866 3.49154 0.53555 -5.81576 0.00000 0.00000
10070 10175 10174 10178 3 -1.26775 3.02085 1.74473 -3.49782 0.00000 0.00000
10075 10067 10068 10069 3 33.20422 0.00000 -33.20422 0.00000 0.00000 0.00000 ; methylguanidinium ion
10075 10067 10068 10073 3 20.50160 0.00000 -20.50160 0.00000 0.00000 0.00000 ; imides
10075 10076 10083 10084 3 30.28798 -4.81160 -25.47638 0.00000 0.00000 0.00000 ; imides
10076 10083 10084 10066 3 30.28798 -4.81160 -25.47638 0.00000 0.00000 0.00000 ; imides
10076 10083 10084 10085 3 33.20422 0.00000 -33.20422 0.00000 0.00000 0.00000 ; methylguanidinium ion
10077 10076 10083 10084 3 33.20422 0.00000 -33.20422 0.00000 0.00000 0.00000 ; methylguanidinium ion
10078 6354 6353 6352 3 1.58992 4.76976 0.00000 -6.35968 0.00000 0.00000
10078 6354 6353 6355 3 1.58992 4.76976 0.00000 -6.35968 0.00000 0.00000
10078 6354 6353 6356 3 1.58992 4.76976 0.00000 -6.35968 0.00000 0.00000
10083 10076 10077 10078 3 33.20422 0.00000 -33.20422 0.00000 0.00000 0.00000 ; methylguanidinium ion
10083 10076 10077 10081 3 20.50160 0.00000 -20.50160 0.00000 0.00000 0.00000 ; imides
10084 10066 10067 10068 3 33.20422 0.00000 -33.20422 0.00000 0.00000 0.00000 ; methylguanidinium ion
10084 10066 10067 10075 3 30.28798 -4.81160 -25.47638 0.00000 0.00000 0.00000 ; imides
10086 8957 8956 8955 3 1.58992 4.76976 0.00000 -6.35968 0.00000 0.00000
10086 8957 8956 8958 3 1.58992 4.76976 0.00000 -6.35968 0.00000 0.00000
10086 8957 8956 8959 3 1.58992 4.76976 0.00000 -6.35968 0.00000 0.00000
10091 10092 10099 10100 3 30.28798 -4.81160 -25.47638 0.00000 0.00000 0.00000 ; imides
10091 10108 10109 10110 3 33.20422 0.00000 -33.20422 0.00000 0.00000 0.00000 ; methylguanidinium ion
10091 10108 10109 10113 3 20.50160 0.00000 -20.50160 0.00000 0.00000 0.00000 ; imides
10092 10091 10108 10107 3 30.28798 -4.81160 -25.47638 0.00000 0.00000 0.00000 ; imides
10092 10091 10108 10109 3 33.20422 0.00000 -33.20422 0.00000 0.00000 0.00000 ; methylguanidinium ion
10092 10099 10100 10101 3 33.20422 0.00000 -33.20422 0.00000 0.00000 0.00000 ; methylguanidinium ion
10092 10099 10100 10107 3 30.28798 -4.81160 -25.47638 0.00000 0.00000 0.00000 ; imides
10093 10092 10099 10100 3 33.20422 0.00000 -33.20422 0.00000 0.00000 0.00000 ; methylguanidinium ion
10094 8371 8370 8369 3 1.58992 4.76976 0.00000 -6.35968 0.00000 0.00000
10094 8371 8370 8372 3 1.58992 4.76976 0.00000 -6.35968 0.00000 0.00000
10094 8371 8370 8373 3 1.58992 4.76976 0.00000 -6.35968 0.00000 0.00000
10099 10092 10093 10094 3 33.20422 0.00000 -33.20422 0.00000 0.00000 0.00000 ; methylguanidinium ion
10099 10092 10093 10097 3 20.50160 0.00000 -20.50160 0.00000 0.00000 0.00000 ; imides
10099 10100 10107 10108 3 30.28798 -4.81160 -25.47638 0.00000 0.00000 0.00000 ; imides
10100 10107 10108 10091 3 30.28798 -4.81160 -25.47638 0.00000 0.00000 0.00000 ; imides
10100 10107 10108 10109 3 33.20422 0.00000 -33.20422 0.00000 0.00000 0.00000 ; methylguanidinium ion
10101 10100 10107 10108 3 33.20422 0.00000 -33.20422 0.00000 0.00000 0.00000 ; methylguanidinium ion
10102 8280 8279 8278 3 1.58992 4.76976 0.00000 -6.35968 0.00000 0.00000
10102 8280 8279 8281 3 1.58992 4.76976 0.00000 -6.35968 0.00000 0.00000
10102 8280 8279 8282 3 1.58992 4.76976 0.00000 -6.35968 0.00000 0.00000
10107 10100 10101 10102 3 33.20422 0.00000 -33.20422 0.00000 0.00000 0.00000 ; methylguanidinium ion
10107 10100 10101 10105 3 20.50160 0.00000 -20.50160 0.00000 0.00000 0.00000 ; imides
10108 10091 10092 10093 3 33.20422 0.00000 -33.20422 0.00000 0.00000 0.00000 ; methylguanidinium ion
10108 10091 10092 10099 3 30.28798 -4.81160 -25.47638 0.00000 0.00000 0.00000 ; imides
10110 5225 5224 5223 3 1.58992 4.76976 0.00000 -6.35968 0.00000 0.00000
10110 5225 5224 5226 3 1.58992 4.76976 0.00000 -6.35968 0.00000 0.00000
10110 5225 5224 5227 3 1.58992 4.76976 0.00000 -6.35968 0.00000 0.00000
10115 10116 10124 10125 3 30.28798 -4.81160 -25.47638 0.00000 0.00000 0.00000 ; imides
10115 10133 10134 10135 3 33.20422 0.00000 -33.20422 0.00000 0.00000 0.00000 ; methylguanidinium ion
10115 10133 10134 10138 3 20.50160 0.00000 -20.50160 0.00000 0.00000 0.00000 ; imides
10116 10115 10133 10132 3 30.28798 -4.81160 -25.47638 0.00000 0.00000 0.00000 ; imides
10116 10115 10133 10134 3 33.20422 0.00000 -33.20422 0.00000 0.00000 0.00000 ; methylguanidinium ion
10116 10124 10125 10126 3 33.20422 0.00000 -33.20422 0.00000 0.00000 0.00000 ; methylguanidinium ion
10116 10124 10125 10132 3 30.28798 -4.81160 -25.47638 0.00000 0.00000 0.00000 ; imides
10117 10116 10124 10125 3 33.20422 0.00000 -33.20422 0.00000 0.00000 0.00000 ; methylguanidinium ion
10118 10119 10651 10650 3 1.58992 4.76976 0.00000 -6.35968 0.00000 0.00000
10118 10119 10651 10652 3 1.58992 4.76976 0.00000 -6.35968 0.00000 0.00000
10118 10119 10651 10653 3 1.58992 4.76976 0.00000 -6.35968 0.00000 0.00000
10119 10651 10650 10649 3 1.78866 3.49154 0.53555 -5.81576 0.00000 0.00000
10119 10651 10650 10654 3 -1.26775 3.02085 1.74473 -3.49782 0.00000 0.00000
10124 10116 10117 10118 3 33.20422 0.00000 -33.20422 0.00000 0.00000 0.00000 ; methylguanidinium ion
10124 10116 10117 10122 3 20.50160 0.00000 -20.50160 0.00000 0.00000 0.00000 ; imides
10124 10125 10132 10133 3 30.28798 -4.81160 -25.47638 0.00000 0.00000 0.00000 ; imides
10125 10132 10133 10115 3 30.28798 -4.81160 -25.47638 0.00000 0.00000 0.00000 ; imides
10125 10132 10133 10134 3 33.20422 0.00000 -33.20422 0.00000 0.00000 0.00000 ; methylguanidinium ion
10126 10125 10132 10133 3 33.20422 0.00000 -33.20422 0.00000 0.00000 0.00000 ; methylguanidinium ion
10127 7220 7219 7218 3 1.58992 4.76976 0.00000 -6.35968 0.00000 0.00000
10127 7220 7219 7221 3 1.58992 4.76976 0.00000 -6.35968 0.00000 0.00000
10127 7220 7219 7222 3 1.58992 4.76976 0.00000 -6.35968 0.00000 0.00000
10132 10125 10126 10127 3 33.20422 0.00000 -33.20422 0.00000 0.00000 0.00000 ; methylguanidinium ion
10132 10125 10126 10130 3 20.50160 0.00000 -20.50160 0.00000 0.00000 0.00000 ; imides
10133 10115 10116 10117 3 33.20422 0.00000 -33.20422 0.00000 0.00000 0.00000 ; methylguanidinium ion
10133 10115 10116 10124 3 30.28798 -4.81160 -25.47638 0.00000 0.00000 0.00000 ; imides
10135 4620 4619 4618 3 1.58992 4.76976 0.00000 -6.35968 0.00000 0.00000
10135 4620 4619 4621 3 1.58992 4.76976 0.00000 -6.35968 0.00000 0.00000
10135 4620 4619 4622 3 1.58992 4.76976 0.00000 -6.35968 0.00000 0.00000
10140 10141 10148 10149 3 30.28798 -4.81160 -25.47638 0.00000 0.00000 0.00000 ; imides
10140 10157 10158 10159 3 33.20422 0.00000 -33.20422 0.00000 0.00000 0.00000 ; methylguanidinium ion
10140 10157 10158 10162 3 20.50160 0.00000 -20.50160 0.00000 0.00000 0.00000 ; imides
10141 10140 10157 10156 3 30.28798 -4.81160 -25.47638 0.00000 0.00000 0.00000 ; imides
10141 10140 10157 10158 3 33.20422 0.00000 -33.20422 0.00000 0.00000 0.00000 ; methylguanidinium ion
10141 10148 10149 10150 3 33.20422 0.00000 -33.20422 0.00000 0.00000 0.00000 ; methylguanidinium ion
10141 10148 10149 10156 3 30.28798 -4.81160 -25.47638 0.00000 0.00000 0.00000 ; imides
10142 10141 10148 10149 3 33.20422 0.00000 -33.20422 0.00000 0.00000 0.00000 ; methylguanidinium ion
10143 2068 2067 2066 3 1.58992 4.76976 0.00000 -6.35968 0.00000 0.00000
10143 2068 2067 2069 3 1.58992 4.76976 0.00000 -6.35968 0.00000 0.00000
10143 2068 2067 2070 3 1.58992 4.76976 0.00000 -6.35968 0.00000 0.00000
10148 10141 10142 10143 3 33.20422 0.00000 -33.20422 0.00000 0.00000 0.00000 ; methylguanidinium ion
10148 10141 10142 10146 3 20.50160 0.00000 -20.50160 0.00000 0.00000 0.00000 ; imides
10148 10149 10156 10157 3 30.28798 -4.81160 -25.47638 0.00000 0.00000 0.00000 ; imides
10149 10156 10157 10140 3 30.28798 -4.81160 -25.47638 0.00000 0.00000 0.00000 ; imides
10149 10156 10157 10158 3 33.20422 0.00000 -33.20422 0.00000 0.00000 0.00000 ; methylguanidinium ion
10150 10149 10156 10157 3 33.20422 0.00000 -33.20422 0.00000 0.00000 0.00000 ; methylguanidinium ion
10151 6153 6152 6151 3 1.58992 4.76976 0.00000 -6.35968 0.00000 0.00000
10151 6153 6152 6154 3 1.58992 4.76976 0.00000 -6.35968 0.00000 0.00000
10151 6153 6152 6155 3 1.58992 4.76976 0.00000 -6.35968 0.00000 0.00000
10156 10149 10150 10151 3 33.20422 0.00000 -33.20422 0.00000 0.00000 0.00000 ; methylguanidinium ion
10156 10149 10150 10154 3 20.50160 0.00000 -20.50160 0.00000 0.00000 0.00000 ; imides
10157 10140 10141 10142 3 33.20422 0.00000 -33.20422 0.00000 0.00000 0.00000 ; methylguanidinium ion
10157 10140 10141 10148 3 30.28798 -4.81160 -25.47638 0.00000 0.00000 0.00000 ; imides
10159 2256 2255 2254 3 1.58992 4.76976 0.00000 -6.35968 0.00000 0.00000
10159 2256 2255 2257 3 1.58992 4.76976 0.00000 -6.35968 0.00000 0.00000
10159 2256 2255 2258 3 1.58992 4.76976 0.00000 -6.35968 0.00000 0.00000
10164 10165 10172 10173 3 30.28798 -4.81160 -25.47638 0.00000 0.00000 0.00000 ; imides
10164 10181 10182 10183 3 33.20422 0.00000 -33.20422 0.00000 0.00000 0.00000 ; methylguanidinium ion
10164 10181 10182 10186 3 20.50160 0.00000 -20.50160 0.00000 0.00000 0.00000 ; imides
10165 10164 10181 10180 3 30.28798 -4.81160 -25.47638 0.00000 0.00000 0.00000 ; imides
10165 10164 10181 10182 3 33.20422 0.00000 -33.20422 0.00000 0.00000 0.00000 ; methylguanidinium ion
10165 10172 10173 10174 3 33.20422 0.00000 -33.20422 0.00000 0.00000 0.00000 ; methylguanidinium ion
10165 10172 10173 10180 3 30.28798 -4.81160 -25.47638 0.00000 0.00000 0.00000 ; imides
10166 10165 10172 10173 3 33.20422 0.00000 -33.20422 0.00000 0.00000 0.00000 ; methylguanidinium ion
10167 1505 1504 1503 3 1.58992 4.76976 0.00000 -6.35968 0.00000 0.00000
10167 1505 1504 1506 3 1.58992 4.76976 0.00000 -6.35968 0.00000 0.00000
10167 1505 1504 1507 3 1.58992 4.76976 0.00000 -6.35968 0.00000 0.00000
10172 10165 10166 10167 3 33.20422 0.00000 -33.20422 0.00000 0.00000 0.00000 ; methylguanidinium ion
10172 10165 10166 10170 3 20.50160 0.00000 -20.50160 0.00000 0.00000 0.00000 ; imides
10172 10173 10180 10181 3 30.28798 -4.81160 -25.47638 0.00000 0.00000 0.00000 ; imides
10173 10180 10181 10164 3 30.28798 -4.81160 -25.47638 0.00000 0.00000 0.00000 ; imides
10173 10180 10181 10182 3 33.20422 0.00000 -33.20422 0.00000 0.00000 0.00000 ; methylguanidinium ion
10174 10173 10180 10181 3 33.20422 0.00000 -33.20422 0.00000 0.00000 0.00000 ; methylguanidinium ion
10175 10070 10069 10068 3 1.58992 4.76976 0.00000 -6.35968 0.00000 0.00000
10175 10070 10069 10071 3 1.58992 4.76976 0.00000 -6.35968 0.00000 0.00000
10175 10070 10069 10072 3 1.58992 4.76976 0.00000 -6.35968 0.00000 0.00000
10180 10173 10174 10175 3 33.20422 0.00000 -33.20422 0.00000 0.00000 0.00000 ; methylguanidinium ion
10180 10173 10174 10178 3 20.50160 0.00000 -20.50160 0.00000 0.00000 0.00000 ; imides
10181 10164 10165 10166 3 33.20422 0.00000 -33.20422 0.00000 0.00000 0.00000 ; methylguanidinium ion
10181 10164 10165 10172 3 30.28798 -4.81160 -25.47638 0.00000 0.00000 0.00000 ; imides
10183 8966 8965 8964 3 1.58992 4.76976 0.00000 -6.35968 0.00000 0.00000
10183 8966 8965 8967 3 1.58992 4.76976 0.00000 -6.35968 0.00000 0.00000
10183 8966 8965 8968 3 1.58992 4.76976 0.00000 -6.35968 0.00000 0.00000
10188 10189 10196 10197 3 30.28798 -4.81160 -25.47638 0.00000 0.00000 0.00000 ; imides
10188 10207 10208 10209 3 33.20422 0.00000 -33.20422 0.00000 0.00000 0.00000 ; methylguanidinium ion
10188 10207 10208 10212 3 20.50160 0.00000 -20.50160 0.00000 0.00000 0.00000 ; imides
10189 10188 10207 10206 3 30.28798 -4.81160 -25.47638 0.00000 0.00000 0.00000 ; imides
10189 10188 10207 10208 3 33.20422 0.00000 -33.20422 0.00000 0.00000 0.00000 ; methylguanidinium ion
10189 10196 10197 10198 3 33.20422 0.00000 -33.20422 0.00000 0.00000 0.00000 ; methylguanidinium ion
10189 10196 10197 10206 3 30.28798 -4.81160 -25.47638 0.00000 0.00000 0.00000 ; imides
10190 10189 10196 10197 3 33.20422 0.00000 -33.20422 0.00000 0.00000 0.00000 ; methylguanidinium ion
10191 410 409 408 3 1.58992 4.76976 0.00000 -6.35968 0.00000 0.00000
10191 410 409 411 3 1.58992 4.76976 0.00000 -6.35968 0.00000 0.00000
10191 410 409 412 3 1.58992 4.76976 0.00000 -6.35968 0.00000 0.00000
10196 10189 10190 10191 3 33.20422 0.00000 -33.20422 0.00000 0.00000 0.00000 ; methylguanidinium ion
10196 10189 10190 10194 3 20.50160 0.00000 -20.50160 0.00000 0.00000 0.00000 ; imides
10196 10197 10206 10207 3 30.28798 -4.81160 -25.47638 0.00000 0.00000 0.00000 ; imides
10197 10206 10207 10188 3 30.28798 -4.81160 -25.47638 0.00000 0.00000 0.00000 ; imides
10197 10206 10207 10208 3 33.20422 0.00000 -33.20422 0.00000 0.00000 0.00000 ; methylguanidinium ion
10198 10197 10206 10207 3 33.20422 0.00000 -33.20422 0.00000 0.00000 0.00000 ; methylguanidinium ion
10206 10197 10198 10199 3 33.20422 0.00000 -33.20422 0.00000 0.00000 0.00000 ; methylguanidinium ion
10206 10197 10198 10204 3 20.50160 0.00000 -20.50160 0.00000 0.00000 0.00000 ; imides
10207 10188 10189 10190 3 33.20422 0.00000 -33.20422 0.00000 0.00000 0.00000 ; methylguanidinium ion
10207 10188 10189 10196 3 30.28798 -4.81160 -25.47638 0.00000 0.00000 0.00000 ; imides
10209 7452 7451 7450 3 1.58992 4.76976 0.00000 -6.35968 0.00000 0.00000
10209 7452 7451 7453 3 1.58992 4.76976 0.00000 -6.35968 0.00000 0.00000
10209 7452 7451 7454 3 1.58992 4.76976 0.00000 -6.35968 0.00000 0.00000
10214 10215 10222 10223 3 30.28798 -4.81160 -25.47638 0.00000 0.00000 0.00000 ; imides
10214 10233 10234 10235 3 33.20422 0.00000 -33.20422 0.00000 0.00000 0.00000 ; methylguanidinium ion
10214 10233 10234 10238 3 20.50160 0.00000 -20.50160 0.00000 0.00000 0.00000 ; imides
10215 10214 10233 10232 3 30.28798 -4.81160 -25.47638 0.00000 0.00000 0.00000 ; imides
10215 10214 10233 10234 3 33.20422 0.00000 -33.20422 0.00000 0.00000 0.00000 ; methylguanidinium ion
10215 10222 10223 10224 3 33.20422 0.00000 -33.20422 0.00000 0.00000 0.00000 ; methylguanidinium ion
10215 10222 10223 10232 3 30.28798 -4.81160 -25.47638 0.00000 0.00000 0.00000 ; imides
10216 10215 10222 10223 3 33.20422 0.00000 -33.20422 0.00000 0.00000 0.00000 ; methylguanidinium ion
10217 9443 9442 9441 3 1.58992 4.76976 0.00000 -6.35968 0.00000 0.00000
10217 9443 9442 9444 3 1.58992 4.76976 0.00000 -6.35968 0.00000 0.00000
10217 9443 9442 9445 3 1.58992 4.76976 0.00000 -6.35968 0.00000 0.00000
10222 10215 10216 10217 3 33.20422 0.00000 -33.20422 0.00000 0.00000 0.00000 ; methylguanidinium ion
10222 10215 10216 10220 3 20.50160 0.00000 -20.50160 0.00000 0.00000 0.00000 ; imides
10222 10223 10232 10233 3 30.28798 -4.81160 -25.47638 0.00000 0.00000 0.00000 ; imides
10223 10232 10233 10214 3 30.28798 -4.81160 -25.47638 0.00000 0.00000 0.00000 ; imides
10223 10232 10233 10234 3 33.20422 0.00000 -33.20422 0.00000 0.00000 0.00000 ; methylguanidinium ion
10224 10223 10232 10233 3 33.20422 0.00000 -33.20422 0.00000 0.00000 0.00000 ; methylguanidinium ion
10232 10223 10224 10225 3 33.20422 0.00000 -33.20422 0.00000 0.00000 0.00000 ; methylguanidinium ion
10232 10223 10224 10230 3 20.50160 0.00000 -20.50160 0.00000 0.00000 0.00000 ; imides
10233 10214 10215 10216 3 33.20422 0.00000 -33.20422 0.00000 0.00000 0.00000 ; methylguanidinium ion
10233 10214 10215 10222 3 30.28798 -4.81160 -25.47638 0.00000 0.00000 0.00000 ; imides
10235 8482 8481 8480 3 1.58992 4.76976 0.00000 -6.35968 0.00000 0.00000
10235 8482 8481 8483 3 1.58992 4.76976 0.00000 -6.35968 0.00000 0.00000
10235 8482 8481 8484 3 1.58992 4.76976 0.00000 -6.35968 0.00000 0.00000
10240 10241 10248 10249 3 30.28798 -4.81160 -25.47638 0.00000 0.00000 0.00000 ; imides
10240 10258 10259 10260 3 33.20422 0.00000 -33.20422 0.00000 0.00000 0.00000 ; methylguanidinium ion
10240 10258 10259 10263 3 20.50160 0.00000 -20.50160 0.00000 0.00000 0.00000 ; imides
10241 10240 10258 10257 3 30.28798 -4.81160 -25.47638 0.00000 0.00000 0.00000 ; imides
10241 10240 10258 10259 3 33.20422 0.00000 -33.20422 0.00000 0.00000 0.00000 ; methylguanidinium ion
10241 10248 10249 10250 3 33.20422 0.00000 -33.20422 0.00000 0.00000 0.00000 ; methylguanidinium ion
10241 10248 10249 10257 3 30.28798 -4.81160 -25.47638 0.00000 0.00000 0.00000 ; imides
10242 10241 10248 10249 3 33.20422 0.00000 -33.20422 0.00000 0.00000 0.00000 ; methylguanidinium ion
10243 835 834 833 3 1.58992 4.76976 0.00000 -6.35968 0.00000 0.00000
10243 835 834 836 3 1.58992 4.76976 0.00000 -6.35968 0.00000 0.00000
10243 835 834 837 3 1.58992 4.76976 0.00000 -6.35968 0.00000 0.00000
10248 10241 10242 10243 3 33.20422 0.00000 -33.20422 0.00000 0.00000 0.00000 ; methylguanidinium ion
10248 10241 10242 10246 3 20.50160 0.00000 -20.50160 0.00000 0.00000 0.00000 ; imides
10248 10249 10257 10258 3 30.28798 -4.81160 -25.47638 0.00000 0.00000 0.00000 ; imides
10249 10257 10258 10240 3 30.28798 -4.81160 -25.47638 0.00000 0.00000 0.00000 ; imides
10249 10257 10258 10259 3 33.20422 0.00000 -33.20422 0.00000 0.00000 0.00000 ; methylguanidinium ion
10250 10249 10257 10258 3 33.20422 0.00000 -33.20422 0.00000 0.00000 0.00000 ; methylguanidinium ion
10251 10252 10549 10548 3 1.58992 4.76976 0.00000 -6.35968 0.00000 0.00000
10251 10252 10549 10550 3 1.58992 4.76976 0.00000 -6.35968 0.00000 0.00000
10251 10252 10549 10551 3 1.58992 4.76976 0.00000 -6.35968 0.00000 0.00000
10252 10549 10548 10547 3 1.78866 3.49154 0.53555 -5.81576 0.00000 0.00000
10252 10549 10548 10552 3 -1.26775 3.02085 1.74473 -3.49782 0.00000 0.00000
10257 10249 10250 10251 3 33.20422 0.00000 -33.20422 0.00000 0.00000 0.00000 ; methylguanidinium ion
10257 10249 10250 10255 3 20.50160 0.00000 -20.50160 0.00000 0.00000 0.00000 ; imides
10258 10240 10241 10242 3 33.20422 0.00000 -33.20422 0.00000 0.00000 0.00000 ; methylguanidinium ion
10258 10240 10241 10248 3 30.28798 -4.81160 -25.47638 0.00000 0.00000 0.00000 ; imides
10260 5909 5908 5907 3 1.58992 4.76976 0.00000 -6.35968 0.00000 0.00000
10260 5909 5908 5910 3 1.58992 4.76976 0.00000 -6.35968 0.00000 0.00000
10260 5909 5908 5911 3 1.58992 4.76976 0.00000 -6.35968 0.00000 0.00000
10265 10266 10273 10274 3 30.28798 -4.81160 -25.47638 0.00000 0.00000 0.00000 ; imides
10265 10282 10283 10284 3 33.20422 0.00000 -33.20422 0.00000 0.00000 0.00000 ; methylguanidinium ion
10265 10282 10283 10287 3 20.50160 0.00000 -20.50160 0.00000 0.00000 0.00000 ; imides
10266 10265 10282 10281 3 30.28798 -4.81160 -25.47638 0.00000 0.00000 0.00000 ; imides
10266 10265 10282 10283 3 33.20422 0.00000 -33.20422 0.00000 0.00000 0.00000 ; methylguanidinium ion
10266 10273 10274 10275 3 33.20422 0.00000 -33.20422 0.00000 0.00000 0.00000 ; methylguanidinium ion
10266 10273 10274 10281 3 30.28798 -4.81160 -25.47638 0.00000 0.00000 0.00000 ; imides
10267 10266 10273 10274 3 33.20422 0.00000 -33.20422 0.00000 0.00000 0.00000 ; methylguanidinium ion
10268 2301 2300 2299 3 1.58992 4.76976 0.00000 -6.35968 0.00000 0.00000
10268 2301 2300 2302 3 1.58992 4.76976 0.00000 -6.35968 0.00000 0.00000
10268 2301 2300 2303 3 1.58992 4.76976 0.00000 -6.35968 0.00000 0.00000
10273 10266 10267 10268 3 33.20422 0.00000 -33.20422 0.00000 0.00000 0.00000 ; methylguanidinium ion
10273 10266 10267 10271 3 20.50160 0.00000 -20.50160 0.00000 0.00000 0.00000 ; imides
10273 10274 10281 10282 3 30.28798 -4.81160 -25.47638 0.00000 0.00000 0.00000 ; imides
10274 10281 10282 10265 3 30.28798 -4.81160 -25.47638 0.00000 0.00000 0.00000 ; imides
10274 10281 10282 10283 3 33.20422 0.00000 -33.20422 0.00000 0.00000 0.00000 ; methylguanidinium ion
10275 10274 10281 10282 3 33.20422 0.00000 -33.20422 0.00000 0.00000 0.00000 ; methylguanidinium ion
10276 2713 2712 2711 3 1.58992 4.76976 0.00000 -6.35968 0.00000 0.00000
10276 2713 2712 2714 3 1.58992 4.76976 0.00000 -6.35968 0.00000 0.00000
10276 2713 2712 2715 3 1.58992 4.76976 0.00000 -6.35968 0.00000 0.00000
10281 10274 10275 10276 3 33.20422 0.00000 -33.20422 0.00000 0.00000 0.00000 ; methylguanidinium ion
10281 10274 10275 10279 3 20.50160 0.00000 -20.50160 0.00000 0.00000 0.00000 ; imides
10282 10265 10266 10267 3 33.20422 0.00000 -33.20422 0.00000 0.00000 0.00000 ; methylguanidinium ion
10282 10265 10266 10273 3 30.28798 -4.81160 -25.47638 0.00000 0.00000 0.00000 ; imides
10284 2310 2309 2308 3 1.58992 4.76976 0.00000 -6.35968 0.00000 0.00000
10284 2310 2309 2311 3 1.58992 4.76976 0.00000 -6.35968 0.00000 0.00000
10284 2310 2309 2312 3 1.58992 4.76976 0.00000 -6.35968 0.00000 0.00000
10289 10290 10297 10298 3 30.28798 -4.81160 -25.47638 0.00000 0.00000 0.00000 ; imides
10289 10306 10307 10308 3 33.20422 0.00000 -33.20422 0.00000 0.00000 0.00000 ; methylguanidinium ion
10289 10306 10307 10312 3 20.50160 0.00000 -20.50160 0.00000 0.00000 0.00000 ; imides
10290 10289 10306 10305 3 30.28798 -4.81160 -25.47638 0.00000 0.00000 0.00000 ; imides
10290 10289 10306 10307 3 33.20422 0.00000 -33.20422 0.00000 0.00000 0.00000 ; methylguanidinium ion
10290 10297 10298 10299 3 33.20422 0.00000 -33.20422 0.00000 0.00000 0.00000 ; methylguanidinium ion
10290 10297 10298 10305 3 30.28798 -4.81160 -25.47638 0.00000 0.00000 0.00000 ; imides
10291 10290 10297 10298 3 33.20422 0.00000 -33.20422 0.00000 0.00000 0.00000 ; methylguanidinium ion
10292 1576 1575 1574 3 1.58992 4.76976 0.00000 -6.35968 0.00000 0.00000
10292 1576 1575 1577 3 1.58992 4.76976 0.00000 -6.35968 0.00000 0.00000
10292 1576 1575 1578 3 1.58992 4.76976 0.00000 -6.35968 0.00000 0.00000
10297 10290 10291 10292 3 33.20422 0.00000 -33.20422 0.00000 0.00000 0.00000 ; methylguanidinium ion
10297 10290 10291 10295 3 20.50160 0.00000 -20.50160 0.00000 0.00000 0.00000 ; imides
10297 10298 10305 10306 3 30.28798 -4.81160 -25.47638 0.00000 0.00000 0.00000 ; imides
10298 10305 10306 10289 3 30.28798 -4.81160 -25.47638 0.00000 0.00000 0.00000 ; imides
10298 10305 10306 10307 3 33.20422 0.00000 -33.20422 0.00000 0.00000 0.00000 ; methylguanidinium ion
10299 10298 10305 10306 3 33.20422 0.00000 -33.20422 0.00000 0.00000 0.00000 ; methylguanidinium ion
10300 2516 2515 2514 3 1.58992 4.76976 0.00000 -6.35968 0.00000 0.00000
10300 2516 2515 2517 3 1.58992 4.76976 0.00000 -6.35968 0.00000 0.00000
10300 2516 2515 2518 3 1.58992 4.76976 0.00000 -6.35968 0.00000 0.00000
10305 10298 10299 10300 3 33.20422 0.00000 -33.20422 0.00000 0.00000 0.00000 ; methylguanidinium ion
10305 10298 10299 10303 3 20.50160 0.00000 -20.50160 0.00000 0.00000 0.00000 ; imides
10306 10289 10290 10291 3 33.20422 0.00000 -33.20422 0.00000 0.00000 0.00000 ; methylguanidinium ion
10306 10289 10290 10297 3 30.28798 -4.81160 -25.47638 0.00000 0.00000 0.00000 ; imides
10308 10309 12033 12032 3 1.58992 4.76976 0.00000 -6.35968 0.00000 0.00000
10308 10309 12033 12034 3 1.58992 4.76976 0.00000 -6.35968 0.00000 0.00000
10308 10309 12033 12035 3 1.58992 4.76976 0.00000 -6.35968 0.00000 0.00000
10309 12033 12032 12031 3 1.78866 3.49154 0.53555 -5.81576 0.00000 0.00000
10309 12033 12032 12036 3 -1.26775 3.02085 1.74473 -3.49782 0.00000 0.00000
10314 10315 10322 10323 3 30.28798 -4.81160 -25.47638 0.00000 0.00000 0.00000 ; imides
10314 10331 10332 10333 3 33.20422 0.00000 -33.20422 0.00000 0.00000 0.00000 ; methylguanidinium ion
10314 10331 10332 10336 3 20.50160 0.00000 -20.50160 0.00000 0.00000 0.00000 ; imides
10315 10314 10331 10330 3 30.28798 -4.81160 -25.47638 0.00000 0.00000 0.00000 ; imides
10315 10314 10331 10332 3 33.20422 0.00000 -33.20422 0.00000 0.00000 0.00000 ; methylguanidinium ion
10315 10322 10323 10324 3 33.20422 0.00000 -33.20422 0.00000 0.00000 0.00000 ; methylguanidinium ion
10315 10322 10323 10330 3 30.28798 -4.81160 -25.47638 0.00000 0.00000 0.00000 ; imides
10316 10315 10322 10323 3 33.20422 0.00000 -33.20422 0.00000 0.00000 0.00000 ; methylguanidinium ion
10317 5927 5926 5925 3 1.58992 4.76976 0.00000 -6.35968 0.00000 0.00000
10317 5927 5926 5928 3 1.58992 4.76976 0.00000 -6.35968 0.00000 0.00000
10317 5927 5926 5929 3 1.58992 4.76976 0.00000 -6.35968 0.00000 0.00000
10322 10315 10316 10317 3 33.20422 0.00000 -33.20422 0.00000 0.00000 0.00000 ; methylguanidinium ion
10322 10315 10316 10320 3 20.50160 0.00000 -20.50160 0.00000 0.00000 0.00000 ; imides
10322 10323 10330 10331 3 30.28798 -4.81160 -25.47638 0.00000 0.00000 0.00000 ; imides
10323 10330 10331 10314 3 30.28798 -4.81160 -25.47638 0.00000 0.00000 0.00000 ; imides
10323 10330 10331 10332 3 33.20422 0.00000 -33.20422 0.00000 0.00000 0.00000 ; methylguanidinium ion
10324 10323 10330 10331 3 33.20422 0.00000 -33.20422 0.00000 0.00000 0.00000 ; methylguanidinium ion
10325 2128 2127 2126 3 1.58992 4.76976 0.00000 -6.35968 0.00000 0.00000
10325 2128 2127 2129 3 1.58992 4.76976 0.00000 -6.35968 0.00000 0.00000
10325 2128 2127 2130 3 1.58992 4.76976 0.00000 -6.35968 0.00000 0.00000
10330 10323 10324 10325 3 33.20422 0.00000 -33.20422 0.00000 0.00000 0.00000 ; methylguanidinium ion
10330 10323 10324 10328 3 20.50160 0.00000 -20.50160 0.00000 0.00000 0.00000 ; imides
10331 10314 10315 10316 3 33.20422 0.00000 -33.20422 0.00000 0.00000 0.00000 ; methylguanidinium ion
10331 10314 10315 10322 3 30.28798 -4.81160 -25.47638 0.00000 0.00000 0.00000 ; imides
10333 7002 7001 7000 3 1.58992 4.76976 0.00000 -6.35968 0.00000 0.00000
10333 7002 7001 7003 3 1.58992 4.76976 0.00000 -6.35968 0.00000 0.00000
10333 7002 7001 7004 3 1.58992 4.76976 0.00000 -6.35968 0.00000 0.00000
10338 10339 10346 10347 3 30.28798 -4.81160 -25.47638 0.00000 0.00000 0.00000 ; imides
10338 10355 10356 10357 3 33.20422 0.00000 -33.20422 0.00000 0.00000 0.00000 ; methylguanidinium ion
10338 10355 10356 10361 3 20.50160 0.00000 -20.50160 0.00000 0.00000 0.00000 ; imides
10339 10338 10355 10354 3 30.28798 -4.81160 -25.47638 0.00000 0.00000 0.00000 ; imides
10339 10338 10355 10356 3 33.20422 0.00000 -33.20422 0.00000 0.00000 0.00000 ; methylguanidinium ion
10339 10346 10347 10348 3 33.20422 0.00000 -33.20422 0.00000 0.00000 0.00000 ; methylguanidinium ion
10339 10346 10347 10354 3 30.28798 -4.81160 -25.47638 0.00000 0.00000 0.00000 ; imides
10340 10339 10346 10347 3 33.20422 0.00000 -33.20422 0.00000 0.00000 0.00000 ; methylguanidinium ion
10341 5573 5572 5571 3 1.58992 4.76976 0.00000 -6.35968 0.00000 0.00000
10341 5573 5572 5574 3 1.58992 4.76976 0.00000 -6.35968 0.00000 0.00000
10341 5573 5572 5575 3 1.58992 4.76976 0.00000 -6.35968 0.00000 0.00000
10346 10339 10340 10341 3 33.20422 0.00000 -33.20422 0.00000 0.00000 0.00000 ; methylguanidinium ion
10346 10339 10340 10344 3 20.50160 0.00000 -20.50160 0.00000 0.00000 0.00000 ; imides
10346 10347 10354 10355 3 30.28798 -4.81160 -25.47638 0.00000 0.00000 0.00000 ; imides
10347 10354 10355 10338 3 30.28798 -4.81160 -25.47638 0.00000 0.00000 0.00000 ; imides
10347 10354 10355 10356 3 33.20422 0.00000 -33.20422 0.00000 0.00000 0.00000 ; methylguanidinium ion
10348 10347 10354 10355 3 33.20422 0.00000 -33.20422 0.00000 0.00000 0.00000 ; methylguanidinium ion
10349 5978 5977 5976 3 1.58992 4.76976 0.00000 -6.35968 0.00000 0.00000
10349 5978 5977 5979 3 1.58992 4.76976 0.00000 -6.35968 0.00000 0.00000
10349 5978 5977 5980 3 1.58992 4.76976 0.00000 -6.35968 0.00000 0.00000
10354 10347 10348 10349 3 33.20422 0.00000 -33.20422 0.00000 0.00000 0.00000 ; methylguanidinium ion
10354 10347 10348 10352 3 20.50160 0.00000 -20.50160 0.00000 0.00000 0.00000 ; imides
10355 10338 10339 10340 3 33.20422 0.00000 -33.20422 0.00000 0.00000 0.00000 ; methylguanidinium ion
10355 10338 10339 10346 3 30.28798 -4.81160 -25.47638 0.00000 0.00000 0.00000 ; imides
10357 10358 10484 10483 3 1.58992 4.76976 0.00000 -6.35968 0.00000 0.00000
10357 10358 10484 10485 3 1.58992 4.76976 0.00000 -6.35968 0.00000 0.00000
10357 10358 10484 10486 3 1.58992 4.76976 0.00000 -6.35968 0.00000 0.00000
10358 10484 10483 10482 3 1.78866 3.49154 0.53555 -5.81576 0.00000 0.00000
10358 10484 10483 10487 3 -1.26775 3.02085 1.74473 -3.49782 0.00000 0.00000
10363 10364 10371 10372 3 30.28798 -4.81160 -25.47638 0.00000 0.00000 0.00000 ; imides
10363 10380 10381 10382 3 33.20422 0.00000 -33.20422 0.00000 0.00000 0.00000 ; methylguanidinium ion
10363 10380 10381 10386 3 20.50160 0.00000 -20.50160 0.00000 0.00000 0.00000 ; imides
10364 10363 10380 10379 3 30.28798 -4.81160 -25.47638 0.00000 0.00000 0.00000 ; imides
10364 10363 10380 10381 3 33.20422 0.00000 -33.20422 0.00000 0.00000 0.00000 ; methylguanidinium ion
10364 10371 10372 10373 3 33.20422 0.00000 -33.20422 0.00000 0.00000 0.00000 ; methylguanidinium ion
10364 10371 10372 10379 3 30.28798 -4.81160 -25.47638 0.00000 0.00000 0.00000 ; imides
10365 10364 10371 10372 3 33.20422 0.00000 -33.20422 0.00000 0.00000 0.00000 ; methylguanidinium ion
10366 1630 1629 1628 3 1.58992 4.76976 0.00000 -6.35968 0.00000 0.00000
10366 1630 1629 1631 3 1.58992 4.76976 0.00000 -6.35968 0.00000 0.00000
10366 1630 1629 1632 3 1.58992 4.76976 0.00000 -6.35968 0.00000 0.00000
10371 10364 10365 10366 3 33.20422 0.00000 -33.20422 0.00000 0.00000 0.00000 ; methylguanidinium ion
10371 10364 10365 10369 3 20.50160 0.00000 -20.50160 0.00000 0.00000 0.00000 ; imides
10371 10372 10379 10380 3 30.28798 -4.81160 -25.47638 0.00000 0.00000 0.00000 ; imides
10372 10379 10380 10363 3 30.28798 -4.81160 -25.47638 0.00000 0.00000 0.00000 ; imides
10372 10379 10380 10381 3 33.20422 0.00000 -33.20422 0.00000 0.00000 0.00000 ; methylguanidinium ion
10373 10372 10379 10380 3 33.20422 0.00000 -33.20422 0.00000 0.00000 0.00000 ; methylguanidinium ion
10374 3124 3123 3122 3 1.58992 4.76976 0.00000 -6.35968 0.00000 0.00000
10374 3124 3123 3125 3 1.58992 4.76976 0.00000 -6.35968 0.00000 0.00000
10374 3124 3123 3126 3 1.58992 4.76976 0.00000 -6.35968 0.00000 0.00000
10379 10372 10373 10374 3 33.20422 0.00000 -33.20422 0.00000 0.00000 0.00000 ; methylguanidinium ion
10379 10372 10373 10377 3 20.50160 0.00000 -20.50160 0.00000 0.00000 0.00000 ; imides
10380 10363 10364 10365 3 33.20422 0.00000 -33.20422 0.00000 0.00000 0.00000 ; methylguanidinium ion
10380 10363 10364 10371 3 30.28798 -4.81160 -25.47638 0.00000 0.00000 0.00000 ; imides
10382 10383 12362 12361 3 1.58992 4.76976 0.00000 -6.35968 0.00000 0.00000
10382 10383 12362 12363 3 1.58992 4.76976 0.00000 -6.35968 0.00000 0.00000
10382 10383 12362 12364 3 1.58992 4.76976 0.00000 -6.35968 0.00000 0.00000
10383 12362 12361 12360 3 1.78866 3.49154 0.53555 -5.81576 0.00000 0.00000
10383 12362 12361 12365 3 -1.26775 3.02085 1.74473 -3.49782 0.00000 0.00000
10388 10389 10396 10397 3 30.28798 -4.81160 -25.47638 0.00000 0.00000 0.00000 ; imides
10388 10407 10408 10409 3 33.20422 0.00000 -33.20422 0.00000 0.00000 0.00000 ; methylguanidinium ion
10388 10407 10408 10412 3 20.50160 0.00000 -20.50160 0.00000 0.00000 0.00000 ; imides
10389 10388 10407 10406 3 30.28798 -4.81160 -25.47638 0.00000 0.00000 0.00000 ; imides
10389 10388 10407 10408 3 33.20422 0.00000 -33.20422 0.00000 0.00000 0.00000 ; methylguanidinium ion
10389 10396 10397 10398 3 33.20422 0.00000 -33.20422 0.00000 0.00000 0.00000 ; methylguanidinium ion
10389 10396 10397 10406 3 30.28798 -4.81160 -25.47638 0.00000 0.00000 0.00000 ; imides
10390 10389 10396 10397 3 33.20422 0.00000 -33.20422 0.00000 0.00000 0.00000 ; methylguanidinium ion
10391 5684 5683 5682 3 1.58992 4.76976 0.00000 -6.35968 0.00000 0.00000
10391 5684 5683 5685 3 1.58992 4.76976 0.00000 -6.35968 0.00000 0.00000
10391 5684 5683 5686 3 1.58992 4.76976 0.00000 -6.35968 0.00000 0.00000
10396 10389 10390 10391 3 33.20422 0.00000 -33.20422 0.00000 0.00000 0.00000 ; methylguanidinium ion
10396 10389 10390 10394 3 20.50160 0.00000 -20.50160 0.00000 0.00000 0.00000 ; imides
10396 10397 10406 10407 3 30.28798 -4.81160 -25.47638 0.00000 0.00000 0.00000 ; imides
10397 10406 10407 10388 3 30.28798 -4.81160 -25.47638 0.00000 0.00000 0.00000 ; imides
10397 10406 10407 10408 3 33.20422 0.00000 -33.20422 0.00000 0.00000 0.00000 ; methylguanidinium ion
10398 10397 10406 10407 3 33.20422 0.00000 -33.20422 0.00000 0.00000 0.00000 ; methylguanidinium ion
10406 10397 10398 10399 3 33.20422 0.00000 -33.20422 0.00000 0.00000 0.00000 ; methylguanidinium ion
10406 10397 10398 10404 3 20.50160 0.00000 -20.50160 0.00000 0.00000 0.00000 ; imides
10407 10388 10389 10390 3 33.20422 0.00000 -33.20422 0.00000 0.00000 0.00000 ; methylguanidinium ion
10407 10388 10389 10396 3 30.28798 -4.81160 -25.47638 0.00000 0.00000 0.00000 ; imides
10409 6118 6117 6116 3 1.58992 4.76976 0.00000 -6.35968 0.00000 0.00000
10409 6118 6117 6119 3 1.58992 4.76976 0.00000 -6.35968 0.00000 0.00000
10409 6118 6117 6120 3 1.58992 4.76976 0.00000 -6.35968 0.00000 0.00000
10414 10415 10422 10423 3 30.28798 -4.81160 -25.47638 0.00000 0.00000 0.00000 ; imides
10414 10431 10432 10433 3 33.20422 0.00000 -33.20422 0.00000 0.00000 0.00000 ; methylguanidinium ion
10414 10431 10432 10437 3 20.50160 0.00000 -20.50160 0.00000 0.00000 0.00000 ; imides
10415 10414 10431 10430 3 30.28798 -4.81160 -25.47638 0.00000 0.00000 0.00000 ; imides
10415 10414 10431 10432 3 33.20422 0.00000 -33.20422 0.00000 0.00000 0.00000 ; methylguanidinium ion
10415 10422 10423 10424 3 33.20422 0.00000 -33.20422 0.00000 0.00000 0.00000 ; methylguanidinium ion
10415 10422 10423 10430 3 30.28798 -4.81160 -25.47638 0.00000 0.00000 0.00000 ; imides
10416 10415 10422 10423 3 33.20422 0.00000 -33.20422 0.00000 0.00000 0.00000 ; methylguanidinium ion
10417 2014 2013 2012 3 1.58992 4.76976 0.00000 -6.35968 0.00000 0.00000
10417 2014 2013 2015 3 1.58992 4.76976 0.00000 -6.35968 0.00000 0.00000
10417 2014 2013 2016 3 1.58992 4.76976 0.00000 -6.35968 0.00000 0.00000
10422 10415 10416 10417 3 33.20422 0.00000 -33.20422 0.00000 0.00000 0.00000 ; methylguanidinium ion
10422 10415 10416 10420 3 20.50160 0.00000 -20.50160 0.00000 0.00000 0.00000 ; imides
10422 10423 10430 10431 3 30.28798 -4.81160 -25.47638 0.00000 0.00000 0.00000 ; imides
10423 10430 10431 10414 3 30.28798 -4.81160 -25.47638 0.00000 0.00000 0.00000 ; imides
10423 10430 10431 10432 3 33.20422 0.00000 -33.20422 0.00000 0.00000 0.00000 ; methylguanidinium ion
10424 10423 10430 10431 3 33.20422 0.00000 -33.20422 0.00000 0.00000 0.00000 ; methylguanidinium ion
10425 4791 4790 4789 3 1.58992 4.76976 0.00000 -6.35968 0.00000 0.00000
10425 4791 4790 4792 3 1.58992 4.76976 0.00000 -6.35968 0.00000 0.00000
10425 4791 4790 4793 3 1.58992 4.76976 0.00000 -6.35968 0.00000 0.00000
10430 10423 10424 10425 3 33.20422 0.00000 -33.20422 0.00000 0.00000 0.00000 ; methylguanidinium ion
10430 10423 10424 10428 3 20.50160 0.00000 -20.50160 0.00000 0.00000 0.00000 ; imides
10431 10414 10415 10416 3 33.20422 0.00000 -33.20422 0.00000 0.00000 0.00000 ; methylguanidinium ion
10431 10414 10415 10422 3 30.28798 -4.81160 -25.47638 0.00000 0.00000 0.00000 ; imides
10433 10434 10826 10825 3 1.58992 4.76976 0.00000 -6.35968 0.00000 0.00000
10433 10434 10826 10827 3 1.58992 4.76976 0.00000 -6.35968 0.00000 0.00000
10433 10434 10826 10828 3 1.58992 4.76976 0.00000 -6.35968 0.00000 0.00000
10434 10826 10825 10824 3 1.78866 3.49154 0.53555 -5.81576 0.00000 0.00000
10434 10826 10825 10829 3 -1.26775 3.02085 1.74473 -3.49782 0.00000 0.00000
10439 10440 10449 10450 3 30.28798 -4.81160 -25.47638 0.00000 0.00000 0.00000 ; imides
10439 10458 10459 10460 3 33.20422 0.00000 -33.20422 0.00000 0.00000 0.00000 ; methylguanidinium ion
10439 10458 10459 10463 3 20.50160 0.00000 -20.50160 0.00000 0.00000 0.00000 ; imides
10440 10439 10458 10457 3 30.28798 -4.81160 -25.47638 0.00000 0.00000 0.00000 ; imides
10440 10439 10458 10459 3 33.20422 0.00000 -33.20422 0.00000 0.00000 0.00000 ; methylguanidinium ion
10440 10449 10450 10451 3 33.20422 0.00000 -33.20422 0.00000 0.00000 0.00000 ; methylguanidinium ion
10440 10449 10450 10457 3 30.28798 -4.81160 -25.47638 0.00000 0.00000 0.00000 ; imides
10441 10440 10449 10450 3 33.20422 0.00000 -33.20422 0.00000 0.00000 0.00000 ; methylguanidinium ion
10449 10440 10441 10442 3 33.20422 0.00000 -33.20422 0.00000 0.00000 0.00000 ; methylguanidinium ion
10449 10440 10441 10447 3 20.50160 0.00000 -20.50160 0.00000 0.00000 0.00000 ; imides
10449 10450 10457 10458 3 30.28798 -4.81160 -25.47638 0.00000 0.00000 0.00000 ; imides
10450 10457 10458 10439 3 30.28798 -4.81160 -25.47638 0.00000 0.00000 0.00000 ; imides
10450 10457 10458 10459 3 33.20422 0.00000 -33.20422 0.00000 0.00000 0.00000 ; methylguanidinium ion
10451 10450 10457 10458 3 33.20422 0.00000 -33.20422 0.00000 0.00000 0.00000 ; methylguanidinium ion
10452 9242 9241 9240 3 1.58992 4.76976 0.00000 -6.35968 0.00000 0.00000
10452 9242 9241 9243 3 1.58992 4.76976 0.00000 -6.35968 0.00000 0.00000
10452 9242 9241 9244 3 1.58992 4.76976 0.00000 -6.35968 0.00000 0.00000
10457 10450 10451 10452 3 33.20422 0.00000 -33.20422 0.00000 0.00000 0.00000 ; methylguanidinium ion
10457 10450 10451 10455 3 20.50160 0.00000 -20.50160 0.00000 0.00000 0.00000 ; imides
10458 10439 10440 10441 3 33.20422 0.00000 -33.20422 0.00000 0.00000 0.00000 ; methylguanidinium ion
10458 10439 10440 10449 3 30.28798 -4.81160 -25.47638 0.00000 0.00000 0.00000 ; imides
10460 4341 4340 4339 3 1.58992 4.76976 0.00000 -6.35968 0.00000 0.00000
10460 4341 4340 4342 3 1.58992 4.76976 0.00000 -6.35968 0.00000 0.00000
10460 4341 4340 4343 3 1.58992 4.76976 0.00000 -6.35968 0.00000 0.00000
10465 10466 10473 10474 3 30.28798 -4.81160 -25.47638 0.00000 0.00000 0.00000 ; imides
10465 10482 10483 10484 3 33.20422 0.00000 -33.20422 0.00000 0.00000 0.00000 ; methylguanidinium ion
10465 10482 10483 10487 3 20.50160 0.00000 -20.50160 0.00000 0.00000 0.00000 ; imides
10466 10465 10482 10481 3 30.28798 -4.81160 -25.47638 0.00000 0.00000 0.00000 ; imides
10466 10465 10482 10483 3 33.20422 0.00000 -33.20422 0.00000 0.00000 0.00000 ; methylguanidinium ion
10466 10473 10474 10475 3 33.20422 0.00000 -33.20422 0.00000 0.00000 0.00000 ; methylguanidinium ion
10466 10473 10474 10481 3 30.28798 -4.81160 -25.47638 0.00000 0.00000 0.00000 ; imides
10467 10466 10473 10474 3 33.20422 0.00000 -33.20422 0.00000 0.00000 0.00000 ; methylguanidinium ion
10468 2373 2372 2371 3 1.58992 4.76976 0.00000 -6.35968 0.00000 0.00000
10468 2373 2372 2374 3 1.58992 4.76976 0.00000 -6.35968 0.00000 0.00000
10468 2373 2372 2375 3 1.58992 4.76976 0.00000 -6.35968 0.00000 0.00000
10473 10466 10467 10468 3 33.20422 0.00000 -33.20422 0.00000 0.00000 0.00000 ; methylguanidinium ion
10473 10466 10467 10471 3 20.50160 0.00000 -20.50160 0.00000 0.00000 0.00000 ; imides
10473 10474 10481 10482 3 30.28798 -4.81160 -25.47638 0.00000 0.00000 0.00000 ; imides
10474 10481 10482 10465 3 30.28798 -4.81160 -25.47638 0.00000 0.00000 0.00000 ; imides
10474 10481 10482 10483 3 33.20422 0.00000 -33.20422 0.00000 0.00000 0.00000 ; methylguanidinium ion
10475 10474 10481 10482 3 33.20422 0.00000 -33.20422 0.00000 0.00000 0.00000 ; methylguanidinium ion
10476 8845 8844 8843 3 1.58992 4.76976 0.00000 -6.35968 0.00000 0.00000
10476 8845 8844 8846 3 1.58992 4.76976 0.00000 -6.35968 0.00000 0.00000
10476 8845 8844 8847 3 1.58992 4.76976 0.00000 -6.35968 0.00000 0.00000
10481 10474 10475 10476 3 33.20422 0.00000 -33.20422 0.00000 0.00000 0.00000 ; methylguanidinium ion
10481 10474 10475 10479 3 20.50160 0.00000 -20.50160 0.00000 0.00000 0.00000 ; imides
10482 10465 10466 10467 3 33.20422 0.00000 -33.20422 0.00000 0.00000 0.00000 ; methylguanidinium ion
10482 10465 10466 10473 3 30.28798 -4.81160 -25.47638 0.00000 0.00000 0.00000 ; imides
10484 10358 10357 10356 3 1.58992 4.76976 0.00000 -6.35968 0.00000 0.00000
10484 10358 10357 10359 3 1.58992 4.76976 0.00000 -6.35968 0.00000 0.00000
10484 10358 10357 10360 3 1.58992 4.76976 0.00000 -6.35968 0.00000 0.00000
10489 10490 10497 10498 3 30.28798 -4.81160 -25.47638 0.00000 0.00000 0.00000 ; imides
10489 10506 10507 10508 3 33.20422 0.00000 -33.20422 0.00000 0.00000 0.00000 ; methylguanidinium ion
10489 10506 10507 10511 3 20.50160 0.00000 -20.50160 0.00000 0.00000 0.00000 ; imides
10490 10489 10506 10505 3 30.28798 -4.81160 -25.47638 0.00000 0.00000 0.00000 ; imides
10490 10489 10506 10507 3 33.20422 0.00000 -33.20422 0.00000 0.00000 0.00000 ; methylguanidinium ion
10490 10497 10498 10499 3 33.20422 0.00000 -33.20422 0.00000 0.00000 0.00000 ; methylguanidinium ion
10490 10497 10498 10505 3 30.28798 -4.81160 -25.47638 0.00000 0.00000 0.00000 ; imides
10491 10490 10497 10498 3 33.20422 0.00000 -33.20422 0.00000 0.00000 0.00000 ; methylguanidinium ion
10492 4666 4665 4664 3 1.58992 4.76976 0.00000 -6.35968 0.00000 0.00000
10492 4666 4665 4667 3 1.58992 4.76976 0.00000 -6.35968 0.00000 0.00000
10492 4666 4665 4668 3 1.58992 4.76976 0.00000 -6.35968 0.00000 0.00000
10497 10490 10491 10492 3 33.20422 0.00000 -33.20422 0.00000 0.00000 0.00000 ; methylguanidinium ion
10497 10490 10491 10495 3 20.50160 0.00000 -20.50160 0.00000 0.00000 0.00000 ; imides
10497 10498 10505 10506 3 30.28798 -4.81160 -25.47638 0.00000 0.00000 0.00000 ; imides
10498 10505 10506 10489 3 30.28798 -4.81160 -25.47638 0.00000 0.00000 0.00000 ; imides
10498 10505 10506 10507 3 33.20422 0.00000 -33.20422 0.00000 0.00000 0.00000 ; methylguanidinium ion
10499 10498 10505 10506 3 33.20422 0.00000 -33.20422 0.00000 0.00000 0.00000 ; methylguanidinium ion
10500 4559 4558 4557 3 1.58992 4.76976 0.00000 -6.35968 0.00000 0.00000
10500 4559 4558 4560 3 1.58992 4.76976 0.00000 -6.35968 0.00000 0.00000
10500 4559 4558 4561 3 1.58992 4.76976 0.00000 -6.35968 0.00000 0.00000
10505 10498 10499 10500 3 33.20422 0.00000 -33.20422 0.00000 0.00000 0.00000 ; methylguanidinium ion
10505 10498 10499 10503 3 20.50160 0.00000 -20.50160 0.00000 0.00000 0.00000 ; imides
10506 10489 10490 10491 3 33.20422 0.00000 -33.20422 0.00000 0.00000 0.00000 ; methylguanidinium ion
10506 10489 10490 10497 3 30.28798 -4.81160 -25.47638 0.00000 0.00000 0.00000 ; imides
10508 153 152 151 3 1.58992 4.76976 0.00000 -6.35968 0.00000 0.00000
10508 153 152 154 3 1.58992 4.76976 0.00000 -6.35968 0.00000 0.00000
10508 153 152 155 3 1.58992 4.76976 0.00000 -6.35968 0.00000 0.00000
10513 10514 10521 10522 3 30.28798 -4.81160 -25.47638 0.00000 0.00000 0.00000 ; imides
10513 10531 10532 10533 3 33.20422 0.00000 -33.20422 0.00000 0.00000 0.00000 ; methylguanidinium ion
10513 10531 10532 10536 3 20.50160 0.00000 -20.50160 0.00000 0.00000 0.00000 ; imides
10514 10513 10531 10530 3 30.28798 -4.81160 -25.47638 0.00000 0.00000 0.00000 ; imides
10514 10513 10531 10532 3 33.20422 0.00000 -33.20422 0.00000 0.00000 0.00000 ; methylguanidinium ion
10514 10521 10522 10523 3 33.20422 0.00000 -33.20422 0.00000 0.00000 0.00000 ; methylguanidinium ion
10514 10521 10522 10530 3 30.28798 -4.81160 -25.47638 0.00000 0.00000 0.00000 ; imides
10515 10514 10521 10522 3 33.20422 0.00000 -33.20422 0.00000 0.00000 0.00000 ; methylguanidinium ion
10516 8608 8607 8606 3 1.58992 4.76976 0.00000 -6.35968 0.00000 0.00000
10516 8608 8607 8609 3 1.58992 4.76976 0.00000 -6.35968 0.00000 0.00000
10516 8608 8607 8610 3 1.58992 4.76976 0.00000 -6.35968 0.00000 0.00000
10521 10514 10515 10516 3 33.20422 0.00000 -33.20422 0.00000 0.00000 0.00000 ; methylguanidinium ion
10521 10514 10515 10519 3 20.50160 0.00000 -20.50160 0.00000 0.00000 0.00000 ; imides
10521 10522 10530 10531 3 30.28798 -4.81160 -25.47638 0.00000 0.00000 0.00000 ; imides
10522 10530 10531 10513 3 30.28798 -4.81160 -25.47638 0.00000 0.00000 0.00000 ; imides
10522 10530 10531 10532 3 33.20422 0.00000 -33.20422 0.00000 0.00000 0.00000 ; methylguanidinium ion
10523 10522 10530 10531 3 33.20422 0.00000 -33.20422 0.00000 0.00000 0.00000 ; methylguanidinium ion
10524 10525 10625 10624 3 1.58992 4.76976 0.00000 -6.35968 0.00000 0.00000
10524 10525 10625 10626 3 1.58992 4.76976 0.00000 -6.35968 0.00000 0.00000
10524 10525 10625 10627 3 1.58992 4.76976 0.00000 -6.35968 0.00000 0.00000
10525 10625 10624 10623 3 1.78866 3.49154 0.53555 -5.81576 0.00000 0.00000
10525 10625 10624 10628 3 -1.26775 3.02085 1.74473 -3.49782 0.00000 0.00000
10530 10522 10523 10524 3 33.20422 0.00000 -33.20422 0.00000 0.00000 0.00000 ; methylguanidinium ion
10530 10522 10523 10528 3 20.50160 0.00000 -20.50160 0.00000 0.00000 0.00000 ; imides
10531 10513 10514 10515 3 33.20422 0.00000 -33.20422 0.00000 0.00000 0.00000 ; methylguanidinium ion
10531 10513 10514 10521 3 30.28798 -4.81160 -25.47638 0.00000 0.00000 0.00000 ; imides
10533 4447 4446 4445 3 1.58992 4.76976 0.00000 -6.35968 0.00000 0.00000
10533 4447 4446 4448 3 1.58992 4.76976 0.00000 -6.35968 0.00000 0.00000
10533 4447 4446 4449 3 1.58992 4.76976 0.00000 -6.35968 0.00000 0.00000
10538 10539 10546 10547 3 30.28798 -4.81160 -25.47638 0.00000 0.00000 0.00000 ; imides
10538 10555 10556 10557 3 33.20422 0.00000 -33.20422 0.00000 0.00000 0.00000 ; methylguanidinium ion
10538 10555 10556 10562 3 20.50160 0.00000 -20.50160 0.00000 0.00000 0.00000 ; imides
10539 10538 10555 10554 3 30.28798 -4.81160 -25.47638 0.00000 0.00000 0.00000 ; imides
10539 10538 10555 10556 3 33.20422 0.00000 -33.20422 0.00000 0.00000 0.00000 ; methylguanidinium ion
10539 10546 10547 10548 3 33.20422 0.00000 -33.20422 0.00000 0.00000 0.00000 ; methylguanidinium ion
10539 10546 10547 10554 3 30.28798 -4.81160 -25.47638 0.00000 0.00000 0.00000 ; imides
10540 10539 10546 10547 3 33.20422 0.00000 -33.20422 0.00000 0.00000 0.00000 ; methylguanidinium ion
10541 6235 6234 6233 3 1.58992 4.76976 0.00000 -6.35968 0.00000 0.00000
10541 6235 6234 6236 3 1.58992 4.76976 0.00000 -6.35968 0.00000 0.00000
10541 6235 6234 6237 3 1.58992 4.76976 0.00000 -6.35968 0.00000 0.00000
10546 10539 10540 10541 3 33.20422 0.00000 -33.20422 0.00000 0.00000 0.00000 ; methylguanidinium ion
10546 10539 10540 10544 3 20.50160 0.00000 -20.50160 0.00000 0.00000 0.00000 ; imides
10546 10547 10554 10555 3 30.28798 -4.81160 -25.47638 0.00000 0.00000 0.00000 ; imides
10547 10554 10555 10538 3 30.28798 -4.81160 -25.47638 0.00000 0.00000 0.00000 ; imides
10547 10554 10555 10556 3 33.20422 0.00000 -33.20422 0.00000 0.00000 0.00000 ; methylguanidinium ion
10548 10547 10554 10555 3 33.20422 0.00000 -33.20422 0.00000 0.00000 0.00000 ; methylguanidinium ion
10549 10252 10251 10250 3 1.58992 4.76976 0.00000 -6.35968 0.00000 0.00000
10549 10252 10251 10253 3 1.58992 4.76976 0.00000 -6.35968 0.00000 0.00000
10549 10252 10251 10254 3 1.58992 4.76976 0.00000 -6.35968 0.00000 0.00000
10554 10547 10548 10549 3 33.20422 0.00000 -33.20422 0.00000 0.00000 0.00000 ; methylguanidinium ion
10554 10547 10548 10552 3 20.50160 0.00000 -20.50160 0.00000 0.00000 0.00000 ; imides
10555 10538 10539 10540 3 33.20422 0.00000 -33.20422 0.00000 0.00000 0.00000 ; methylguanidinium ion
10555 10538 10539 10546 3 30.28798 -4.81160 -25.47638 0.00000 0.00000 0.00000 ; imides
10564 10565 10574 10575 3 30.28798 -4.81160 -25.47638 0.00000 0.00000 0.00000 ; imides
10564 10583 10584 10585 3 33.20422 0.00000 -33.20422 0.00000 0.00000 0.00000 ; methylguanidinium ion
10564 10583 10584 10588 3 20.50160 0.00000 -20.50160 0.00000 0.00000 0.00000 ; imides
10565 10564 10583 10582 3 30.28798 -4.81160 -25.47638 0.00000 0.00000 0.00000 ; imides
10565 10564 10583 10584 3 33.20422 0.00000 -33.20422 0.00000 0.00000 0.00000 ; methylguanidinium ion
10565 10574 10575 10576 3 33.20422 0.00000 -33.20422 0.00000 0.00000 0.00000 ; methylguanidinium ion
10565 10574 10575 10582 3 30.28798 -4.81160 -25.47638 0.00000 0.00000 0.00000 ; imides
10566 10565 10574 10575 3 33.20422 0.00000 -33.20422 0.00000 0.00000 0.00000 ; methylguanidinium ion
10574 10565 10566 10567 3 33.20422 0.00000 -33.20422 0.00000 0.00000 0.00000 ; methylguanidinium ion
10574 10565 10566 10572 3 20.50160 0.00000 -20.50160 0.00000 0.00000 0.00000 ; imides
10574 10575 10582 10583 3 30.28798 -4.81160 -25.47638 0.00000 0.00000 0.00000 ; imides
10575 10582 10583 10564 3 30.28798 -4.81160 -25.47638 0.00000 0.00000 0.00000 ; imides
10575 10582 10583 10584 3 33.20422 0.00000 -33.20422 0.00000 0.00000 0.00000 ; methylguanidinium ion
10576 10575 10582 10583 3 33.20422 0.00000 -33.20422 0.00000 0.00000 0.00000 ; methylguanidinium ion
10577 6512 6511 6510 3 1.58992 4.76976 0.00000 -6.35968 0.00000 0.00000
10577 6512 6511 6513 3 1.58992 4.76976 0.00000 -6.35968 0.00000 0.00000
10577 6512 6511 6514 3 1.58992 4.76976 0.00000 -6.35968 0.00000 0.00000
10582 10575 10576 10577 3 33.20422 0.00000 -33.20422 0.00000 0.00000 0.00000 ; methylguanidinium ion
10582 10575 10576 10580 3 20.50160 0.00000 -20.50160 0.00000 0.00000 0.00000 ; imides
10583 10564 10565 10566 3 33.20422 0.00000 -33.20422 0.00000 0.00000 0.00000 ; methylguanidinium ion
10583 10564 10565 10574 3 30.28798 -4.81160 -25.47638 0.00000 0.00000 0.00000 ; imides
10585 7704 7703 7702 3 1.58992 4.76976 0.00000 -6.35968 0.00000 0.00000
10585 7704 7703 7705 3 1.58992 4.76976 0.00000 -6.35968 0.00000 0.00000
10585 7704 7703 7706 3 1.58992 4.76976 0.00000 -6.35968 0.00000 0.00000
10590 10591 10598 10599 3 30.28798 -4.81160 -25.47638 0.00000 0.00000 0.00000 ; imides
10590 10607 10608 10609 3 33.20422 0.00000 -33.20422 0.00000 0.00000 0.00000 ; methylguanidinium ion
10590 10607 10608 10612 3 20.50160 0.00000 -20.50160 0.00000 0.00000 0.00000 ; imides
10591 10590 10607 10606 3 30.28798 -4.81160 -25.47638 0.00000 0.00000 0.00000 ; imides
10591 10590 10607 10608 3 33.20422 0.00000 -33.20422 0.00000 0.00000 0.00000 ; methylguanidinium ion
10591 10598 10599 10600 3 33.20422 0.00000 -33.20422 0.00000 0.00000 0.00000 ; methylguanidinium ion
10591 10598 10599 10606 3 30.28798 -4.81160 -25.47638 0.00000 0.00000 0.00000 ; imides
10592 10591 10598 10599 3 33.20422 0.00000 -33.20422 0.00000 0.00000 0.00000 ; methylguanidinium ion
10593 4684 4683 4682 3 1.58992 4.76976 0.00000 -6.35968 0.00000 0.00000
10593 4684 4683 4685 3 1.58992 4.76976 0.00000 -6.35968 0.00000 0.00000
10593 4684 4683 4686 3 1.58992 4.76976 0.00000 -6.35968 0.00000 0.00000
10598 10591 10592 10593 3 33.20422 0.00000 -33.20422 0.00000 0.00000 0.00000 ; methylguanidinium ion
10598 10591 10592 10596 3 20.50160 0.00000 -20.50160 0.00000 0.00000 0.00000 ; imides
10598 10599 10606 10607 3 30.28798 -4.81160 -25.47638 0.00000 0.00000 0.00000 ; imides
10599 10606 10607 10590 3 30.28798 -4.81160 -25.47638 0.00000 0.00000 0.00000 ; imides
10599 10606 10607 10608 3 33.20422 0.00000 -33.20422 0.00000 0.00000 0.00000 ; methylguanidinium ion
10600 10599 10606 10607 3 33.20422 0.00000 -33.20422 0.00000 0.00000 0.00000 ; methylguanidinium ion
10601 3133 3132 3131 3 1.58992 4.76976 0.00000 -6.35968 0.00000 0.00000
10601 3133 3132 3134 3 1.58992 4.76976 0.00000 -6.35968 0.00000 0.00000
10601 3133 3132 3135 3 1.58992 4.76976 0.00000 -6.35968 0.00000 0.00000
10606 10599 10600 10601 3 33.20422 0.00000 -33.20422 0.00000 0.00000 0.00000 ; methylguanidinium ion
10606 10599 10600 10604 3 20.50160 0.00000 -20.50160 0.00000 0.00000 0.00000 ; imides
10607 10590 10591 10592 3 33.20422 0.00000 -33.20422 0.00000 0.00000 0.00000 ; methylguanidinium ion
10607 10590 10591 10598 3 30.28798 -4.81160 -25.47638 0.00000 0.00000 0.00000 ; imides
10609 6596 6595 6594 3 1.58992 4.76976 0.00000 -6.35968 0.00000 0.00000
10609 6596 6595 6597 3 1.58992 4.76976 0.00000 -6.35968 0.00000 0.00000
10609 6596 6595 6598 3 1.58992 4.76976 0.00000 -6.35968 0.00000 0.00000
10614 10615 10622 10623 3 30.28798 -4.81160 -25.47638 0.00000 0.00000 0.00000 ; imides
10614 10631 10632 10633 3 33.20422 0.00000 -33.20422 0.00000 0.00000 0.00000 ; methylguanidinium ion
10614 10631 10632 10638 3 20.50160 0.00000 -20.50160 0.00000 0.00000 0.00000 ; imides
10615 10614 10631 10630 3 30.28798 -4.81160 -25.47638 0.00000 0.00000 0.00000 ; imides
10615 10614 10631 10632 3 33.20422 0.00000 -33.20422 0.00000 0.00000 0.00000 ; methylguanidinium ion
10615 10622 10623 10624 3 33.20422 0.00000 -33.20422 0.00000 0.00000 0.00000 ; methylguanidinium ion
10615 10622 10623 10630 3 30.28798 -4.81160 -25.47638 0.00000 0.00000 0.00000 ; imides
10616 10615 10622 10623 3 33.20422 0.00000 -33.20422 0.00000 0.00000 0.00000 ; methylguanidinium ion
10617 5808 5807 5806 3 1.58992 4.76976 0.00000 -6.35968 0.00000 0.00000
10617 5808 5807 5809 3 1.58992 4.76976 0.00000 -6.35968 0.00000 0.00000
10617 5808 5807 5810 3 1.58992 4.76976 0.00000 -6.35968 0.00000 0.00000
10622 10615 10616 10617 3 33.20422 0.00000 -33.20422 0.00000 0.00000 0.00000 ; methylguanidinium ion
10622 10615 10616 10620 3 20.50160 0.00000 -20.50160 0.00000 0.00000 0.00000 ; imides
10622 10623 10630 10631 3 30.28798 -4.81160 -25.47638 0.00000 0.00000 0.00000 ; imides
10623 10630 10631 10614 3 30.28798 -4.81160 -25.47638 0.00000 0.00000 0.00000 ; imides
10623 10630 10631 10632 3 33.20422 0.00000 -33.20422 0.00000 0.00000 0.00000 ; methylguanidinium ion
10624 10623 10630 10631 3 33.20422 0.00000 -33.20422 0.00000 0.00000 0.00000 ; methylguanidinium ion
10625 10525 10524 10523 3 1.58992 4.76976 0.00000 -6.35968 0.00000 0.00000
10625 10525 10524 10526 3 1.58992 4.76976 0.00000 -6.35968 0.00000 0.00000
10625 10525 10524 10527 3 1.58992 4.76976 0.00000 -6.35968 0.00000 0.00000
10630 10623 10624 10625 3 33.20422 0.00000 -33.20422 0.00000 0.00000 0.00000 ; methylguanidinium ion
10630 10623 10624 10628 3 20.50160 0.00000 -20.50160 0.00000 0.00000 0.00000 ; imides
10631 10614 10615 10616 3 33.20422 0.00000 -33.20422 0.00000 0.00000 0.00000 ; methylguanidinium ion
10631 10614 10615 10622 3 30.28798 -4.81160 -25.47638 0.00000 0.00000 0.00000 ; imides
10640 10641 10648 10649 3 30.28798 -4.81160 -25.47638 0.00000 0.00000 0.00000 ; imides
10640 10657 10658 10659 3 33.20422 0.00000 -33.20422 0.00000 0.00000 0.00000 ; methylguanidinium ion
10640 10657 10658 10662 3 20.50160 0.00000 -20.50160 0.00000 0.00000 0.00000 ; imides
10641 10640 10657 10656 3 30.28798 -4.81160 -25.47638 0.00000 0.00000 0.00000 ; imides
10641 10640 10657 10658 3 33.20422 0.00000 -33.20422 0.00000 0.00000 0.00000 ; methylguanidinium ion
10641 10648 10649 10650 3 33.20422 0.00000 -33.20422 0.00000 0.00000 0.00000 ; methylguanidinium ion
10641 10648 10649 10656 3 30.28798 -4.81160 -25.47638 0.00000 0.00000 0.00000 ; imides
10642 10641 10648 10649 3 33.20422 0.00000 -33.20422 0.00000 0.00000 0.00000 ; methylguanidinium ion
10643 1667 1666 1665 3 1.58992 4.76976 0.00000 -6.35968 0.00000 0.00000
10643 1667 1666 1668 3 1.58992 4.76976 0.00000 -6.35968 0.00000 0.00000
10643 1667 1666 1669 3 1.58992 4.76976 0.00000 -6.35968 0.00000 0.00000
10648 10641 10642 10643 3 33.20422 0.00000 -33.20422 0.00000 0.00000 0.00000 ; methylguanidinium ion
10648 10641 10642 10646 3 20.50160 0.00000 -20.50160 0.00000 0.00000 0.00000 ; imides
10648 10649 10656 10657 3 30.28798 -4.81160 -25.47638 0.00000 0.00000 0.00000 ; imides
10649 10656 10657 10640 3 30.28798 -4.81160 -25.47638 0.00000 0.00000 0.00000 ; imides
10649 10656 10657 10658 3 33.20422 0.00000 -33.20422 0.00000 0.00000 0.00000 ; methylguanidinium ion
10650 10649 10656 10657 3 33.20422 0.00000 -33.20422 0.00000 0.00000 0.00000 ; methylguanidinium ion
10651 10119 10118 10117 3 1.58992 4.76976 0.00000 -6.35968 0.00000 0.00000
10651 10119 10118 10120 3 1.58992 4.76976 0.00000 -6.35968 0.00000 0.00000
10651 10119 10118 10121 3 1.58992 4.76976 0.00000 -6.35968 0.00000 0.00000
10656 10649 10650 10651 3 33.20422 0.00000 -33.20422 0.00000 0.00000 0.00000 ; methylguanidinium ion
10656 10649 10650 10654 3 20.50160 0.00000 -20.50160 0.00000 0.00000 0.00000 ; imides
10657 10640 10641 10642 3 33.20422 0.00000 -33.20422 0.00000 0.00000 0.00000 ; methylguanidinium ion
10657 10640 10641 10648 3 30.28798 -4.81160 -25.47638 0.00000 0.00000 0.00000 ; imides
10659 7229 7228 7227 3 1.58992 4.76976 0.00000 -6.35968 0.00000 0.00000
10659 7229 7228 7230 3 1.58992 4.76976 0.00000 -6.35968 0.00000 0.00000
10659 7229 7228 7231 3 1.58992 4.76976 0.00000 -6.35968 0.00000 0.00000
10664 10665 10672 10673 3 30.28798 -4.81160 -25.47638 0.00000 0.00000 0.00000 ; imides
10664 10682 10683 10684 3 33.20422 0.00000 -33.20422 0.00000 0.00000 0.00000 ; methylguanidinium ion
10664 10682 10683 10689 3 20.50160 0.00000 -20.50160 0.00000 0.00000 0.00000 ; imides
10665 10664 10682 10681 3 30.28798 -4.81160 -25.47638 0.00000 0.00000 0.00000 ; imides
10665 10664 10682 10683 3 33.20422 0.00000 -33.20422 0.00000 0.00000 0.00000 ; methylguanidinium ion
10665 10672 10673 10674 3 33.20422 0.00000 -33.20422 0.00000 0.00000 0.00000 ; methylguanidinium ion
10665 10672 10673 10681 3 30.28798 -4.81160 -25.47638 0.00000 0.00000 0.00000 ; imides
10666 10665 10672 10673 3 33.20422 0.00000 -33.20422 0.00000 0.00000 0.00000 ; methylguanidinium ion
10667 4456 4455 4454 3 1.58992 4.76976 0.00000 -6.35968 0.00000 0.00000
10667 4456 4455 4457 3 1.58992 4.76976 0.00000 -6.35968 0.00000 0.00000
10667 4456 4455 4458 3 1.58992 4.76976 0.00000 -6.35968 0.00000 0.00000
10672 10665 10666 10667 3 33.20422 0.00000 -33.20422 0.00000 0.00000 0.00000 ; methylguanidinium ion
10672 10665 10666 10670 3 20.50160 0.00000 -20.50160 0.00000 0.00000 0.00000 ; imides
10672 10673 10681 10682 3 30.28798 -4.81160 -25.47638 0.00000 0.00000 0.00000 ; imides
10673 10681 10682 10664 3 30.28798 -4.81160 -25.47638 0.00000 0.00000 0.00000 ; imides
10673 10681 10682 10683 3 33.20422 0.00000 -33.20422 0.00000 0.00000 0.00000 ; methylguanidinium ion
10674 10673 10681 10682 3 33.20422 0.00000 -33.20422 0.00000 0.00000 0.00000 ; methylguanidinium ion
10675 10676 10877 10876 3 1.58992 4.76976 0.00000 -6.35968 0.00000 0.00000
10675 10676 10877 10878 3 1.58992 4.76976 0.00000 -6.35968 0.00000 0.00000
10675 10676 10877 10879 3 1.58992 4.76976 0.00000 -6.35968 0.00000 0.00000
10676 10877 10876 10875 3 1.78866 3.49154 0.53555 -5.81576 0.00000 0.00000
10676 10877 10876 10880 3 -1.26775 3.02085 1.74473 -3.49782 0.00000 0.00000
10681 10673 10674 10675 3 33.20422 0.00000 -33.20422 0.00000 0.00000 0.00000 ; methylguanidinium ion
10681 10673 10674 10679 3 20.50160 0.00000 -20.50160 0.00000 0.00000 0.00000 ; imides
10682 10664 10665 10666 3 33.20422 0.00000 -33.20422 0.00000 0.00000 0.00000 ; methylguanidinium ion
10682 10664 10665 10672 3 30.28798 -4.81160 -25.47638 0.00000 0.00000 0.00000 ; imides
10691 10692 10700 10701 3 30.28798 -4.81160 -25.47638 0.00000 0.00000 0.00000 ; imides
10691 10709 10710 10711 3 33.20422 0.00000 -33.20422 0.00000 0.00000 0.00000 ; methylguanidinium ion
10691 10709 10710 10714 3 20.50160 0.00000 -20.50160 0.00000 0.00000 0.00000 ; imides
10692 10691 10709 10708 3 30.28798 -4.81160 -25.47638 0.00000 0.00000 0.00000 ; imides
10692 10691 10709 10710 3 33.20422 0.00000 -33.20422 0.00000 0.00000 0.00000 ; methylguanidinium ion
10692 10700 10701 10702 3 33.20422 0.00000 -33.20422 0.00000 0.00000 0.00000 ; methylguanidinium ion
10692 10700 10701 10708 3 30.28798 -4.81160 -25.47638 0.00000 0.00000 0.00000 ; imides
10693 10692 10700 10701 3 33.20422 0.00000 -33.20422 0.00000 0.00000 0.00000 ; methylguanidinium ion
10694 10695 11483 11482 3 1.58992 4.76976 0.00000 -6.35968 0.00000 0.00000
10694 10695 11483 11484 3 1.58992 4.76976 0.00000 -6.35968 0.00000 0.00000
10694 10695 11483 11485 3 1.58992 4.76976 0.00000 -6.35968 0.00000 0.00000
10695 11483 11482 11481 3 1.78866 3.49154 0.53555 -5.81576 0.00000 0.00000
10695 11483 11482 11486 3 -1.26775 3.02085 1.74473 -3.49782 0.00000 0.00000
10700 10692 10693 10694 3 33.20422 0.00000 -33.20422 0.00000 0.00000 0.00000 ; methylguanidinium ion
10700 10692 10693 10698 3 20.50160 0.00000 -20.50160 0.00000 0.00000 0.00000 ; imides
10700 10701 10708 10709 3 30.28798 -4.81160 -25.47638 0.00000 0.00000 0.00000 ; imides
10701 10708 10709 10691 3 30.28798 -4.81160 -25.47638 0.00000 0.00000 0.00000 ; imides
10701 10708 10709 10710 3 33.20422 0.00000 -33.20422 0.00000 0.00000 0.00000 ; methylguanidinium ion
10702 10701 10708 10709 3 33.20422 0.00000 -33.20422 0.00000 0.00000 0.00000 ; methylguanidinium ion
10703 162 161 160 3 1.58992 4.76976 0.00000 -6.35968 0.00000 0.00000
10703 162 161 163 3 1.58992 4.76976 0.00000 -6.35968 0.00000 0.00000
10703 162 161 164 3 1.58992 4.76976 0.00000 -6.35968 0.00000 0.00000
10708 10701 10702 10703 3 33.20422 0.00000 -33.20422 0.00000 0.00000 0.00000 ; methylguanidinium ion
10708 10701 10702 10706 3 20.50160 0.00000 -20.50160 0.00000 0.00000 0.00000 ; imides
10709 10691 10692 10693 3 33.20422 0.00000 -33.20422 0.00000 0.00000 0.00000 ; methylguanidinium ion
10709 10691 10692 10700 3 30.28798 -4.81160 -25.47638 0.00000 0.00000 0.00000 ; imides
10711 8532 8531 8530 3 1.58992 4.76976 0.00000 -6.35968 0.00000 0.00000
10711 8532 8531 8533 3 1.58992 4.76976 0.00000 -6.35968 0.00000 0.00000
10711 8532 8531 8534 3 1.58992 4.76976 0.00000 -6.35968 0.00000 0.00000
10716 10717 10724 10725 3 30.28798 -4.81160 -25.47638 0.00000 0.00000 0.00000 ; imides
10716 10734 10735 10736 3 33.20422 0.00000 -33.20422 0.00000 0.00000 0.00000 ; methylguanidinium ion
10716 10734 10735 10739 3 20.50160 0.00000 -20.50160 0.00000 0.00000 0.00000 ; imides
10717 10716 10734 10733 3 30.28798 -4.81160 -25.47638 0.00000 0.00000 0.00000 ; imides
10717 10716 10734 10735 3 33.20422 0.00000 -33.20422 0.00000 0.00000 0.00000 ; methylguanidinium ion
10717 10724 10725 10726 3 33.20422 0.00000 -33.20422 0.00000 0.00000 0.00000 ; methylguanidinium ion
10717 10724 10725 10733 3 30.28798 -4.81160 -25.47638 0.00000 0.00000 0.00000 ; imides
10718 10717 10724 10725 3 33.20422 0.00000 -33.20422 0.00000 0.00000 0.00000 ; methylguanidinium ion
10719 1063 1062 1061 3 1.58992 4.76976 0.00000 -6.35968 0.00000 0.00000
10719 1063 1062 1064 3 1.58992 4.76976 0.00000 -6.35968 0.00000 0.00000
10719 1063 1062 1065 3 1.58992 4.76976 0.00000 -6.35968 0.00000 0.00000
10724 10717 10718 10719 3 33.20422 0.00000 -33.20422 0.00000 0.00000 0.00000 ; methylguanidinium ion
10724 10717 10718 10722 3 20.50160 0.00000 -20.50160 0.00000 0.00000 0.00000 ; imides
10724 10725 10733 10734 3 30.28798 -4.81160 -25.47638 0.00000 0.00000 0.00000 ; imides
10725 10733 10734 10716 3 30.28798 -4.81160 -25.47638 0.00000 0.00000 0.00000 ; imides
10725 10733 10734 10735 3 33.20422 0.00000 -33.20422 0.00000 0.00000 0.00000 ; methylguanidinium ion
10726 10725 10733 10734 3 33.20422 0.00000 -33.20422 0.00000 0.00000 0.00000 ; methylguanidinium ion
10727 10728 11409 11408 3 1.58992 4.76976 0.00000 -6.35968 0.00000 0.00000
10727 10728 11409 11410 3 1.58992 4.76976 0.00000 -6.35968 0.00000 0.00000
10727 10728 11409 11411 3 1.58992 4.76976 0.00000 -6.35968 0.00000 0.00000
10728 11409 11408 11407 3 1.78866 3.49154 0.53555 -5.81576 0.00000 0.00000
10728 11409 11408 11412 3 -1.26775 3.02085 1.74473 -3.49782 0.00000 0.00000
10733 10725 10726 10727 3 33.20422 0.00000 -33.20422 0.00000 0.00000 0.00000 ; methylguanidinium ion
10733 10725 10726 10731 3 20.50160 0.00000 -20.50160 0.00000 0.00000 0.00000 ; imides
10734 10716 10717 10718 3 33.20422 0.00000 -33.20422 0.00000 0.00000 0.00000 ; methylguanidinium ion
10734 10716 10717 10724 3 30.28798 -4.81160 -25.47638 0.00000 0.00000 0.00000 ; imides
10736 6977 6976 6975 3 1.58992 4.76976 0.00000 -6.35968 0.00000 0.00000
10736 6977 6976 6978 3 1.58992 4.76976 0.00000 -6.35968 0.00000 0.00000
10736 6977 6976 6979 3 1.58992 4.76976 0.00000 -6.35968 0.00000 0.00000
10741 10742 10749 10750 3 30.28798 -4.81160 -25.47638 0.00000 0.00000 0.00000 ; imides
10741 10758 10759 10760 3 33.20422 0.00000 -33.20422 0.00000 0.00000 0.00000 ; methylguanidinium ion
10741 10758 10759 10763 3 20.50160 0.00000 -20.50160 0.00000 0.00000 0.00000 ; imides
10742 10741 10758 10757 3 30.28798 -4.81160 -25.47638 0.00000 0.00000 0.00000 ; imides
10742 10741 10758 10759 3 33.20422 0.00000 -33.20422 0.00000 0.00000 0.00000 ; methylguanidinium ion
10742 10749 10750 10751 3 33.20422 0.00000 -33.20422 0.00000 0.00000 0.00000 ; methylguanidinium ion
10742 10749 10750 10757 3 30.28798 -4.81160 -25.47638 0.00000 0.00000 0.00000 ; imides
10743 10742 10749 10750 3 33.20422 0.00000 -33.20422 0.00000 0.00000 0.00000 ; methylguanidinium ion
10744 7109 7108 7107 3 1.58992 4.76976 0.00000 -6.35968 0.00000 0.00000
10744 7109 7108 7110 3 1.58992 4.76976 0.00000 -6.35968 0.00000 0.00000
10744 7109 7108 7111 3 1.58992 4.76976 0.00000 -6.35968 0.00000 0.00000
10749 10742 10743 10744 3 33.20422 0.00000 -33.20422 0.00000 0.00000 0.00000 ; methylguanidinium ion
10749 10742 10743 10747 3 20.50160 0.00000 -20.50160 0.00000 0.00000 0.00000 ; imides
10749 10750 10757 10758 3 30.28798 -4.81160 -25.47638 0.00000 0.00000 0.00000 ; imides
10750 10757 10758 10741 3 30.28798 -4.81160 -25.47638 0.00000 0.00000 0.00000 ; imides
10750 10757 10758 10759 3 33.20422 0.00000 -33.20422 0.00000 0.00000 0.00000 ; methylguanidinium ion
10751 10750 10757 10758 3 33.20422 0.00000 -33.20422 0.00000 0.00000 0.00000 ; methylguanidinium ion
10752 2994 2993 2992 3 1.58992 4.76976 0.00000 -6.35968 0.00000 0.00000
10752 2994 2993 2995 3 1.58992 4.76976 0.00000 -6.35968 0.00000 0.00000
10752 2994 2993 2996 3 1.58992 4.76976 0.00000 -6.35968 0.00000 0.00000
10757 10750 10751 10752 3 33.20422 0.00000 -33.20422 0.00000 0.00000 0.00000 ; methylguanidinium ion
10757 10750 10751 10755 3 20.50160 0.00000 -20.50160 0.00000 0.00000 0.00000 ; imides
10758 10741 10742 10743 3 33.20422 0.00000 -33.20422 0.00000 0.00000 0.00000 ; methylguanidinium ion
10758 10741 10742 10749 3 30.28798 -4.81160 -25.47638 0.00000 0.00000 0.00000 ; imides
10760 6503 6502 6501 3 1.58992 4.76976 0.00000 -6.35968 0.00000 0.00000
10760 6503 6502 6504 3 1.58992 4.76976 0.00000 -6.35968 0.00000 0.00000
10760 6503 6502 6505 3 1.58992 4.76976 0.00000 -6.35968 0.00000 0.00000
10765 10766 10773 10774 3 30.28798 -4.81160 -25.47638 0.00000 0.00000 0.00000 ; imides
10765 10782 10783 10784 3 33.20422 0.00000 -33.20422 0.00000 0.00000 0.00000 ; methylguanidinium ion
10765 10782 10783 10787 3 20.50160 0.00000 -20.50160 0.00000 0.00000 0.00000 ; imides
10766 10765 10782 10781 3 30.28798 -4.81160 -25.47638 0.00000 0.00000 0.00000 ; imides
10766 10765 10782 10783 3 33.20422 0.00000 -33.20422 0.00000 0.00000 0.00000 ; methylguanidinium ion
10766 10773 10774 10775 3 33.20422 0.00000 -33.20422 0.00000 0.00000 0.00000 ; methylguanidinium ion
10766 10773 10774 10781 3 30.28798 -4.81160 -25.47638 0.00000 0.00000 0.00000 ; imides
10767 10766 10773 10774 3 33.20422 0.00000 -33.20422 0.00000 0.00000 0.00000 ; methylguanidinium ion
10768 4648 4647 4646 3 1.58992 4.76976 0.00000 -6.35968 0.00000 0.00000
10768 4648 4647 4649 3 1.58992 4.76976 0.00000 -6.35968 0.00000 0.00000
10768 4648 4647 4650 3 1.58992 4.76976 0.00000 -6.35968 0.00000 0.00000
10773 10766 10767 10768 3 33.20422 0.00000 -33.20422 0.00000 0.00000 0.00000 ; methylguanidinium ion
10773 10766 10767 10771 3 20.50160 0.00000 -20.50160 0.00000 0.00000 0.00000 ; imides
10773 10774 10781 10782 3 30.28798 -4.81160 -25.47638 0.00000 0.00000 0.00000 ; imides
10774 10781 10782 10765 3 30.28798 -4.81160 -25.47638 0.00000 0.00000 0.00000 ; imides
10774 10781 10782 10783 3 33.20422 0.00000 -33.20422 0.00000 0.00000 0.00000 ; methylguanidinium ion
10775 10774 10781 10782 3 33.20422 0.00000 -33.20422 0.00000 0.00000 0.00000 ; methylguanidinium ion
10776 5242 5241 5240 3 1.58992 4.76976 0.00000 -6.35968 0.00000 0.00000
10776 5242 5241 5243 3 1.58992 4.76976 0.00000 -6.35968 0.00000 0.00000
10776 5242 5241 5244 3 1.58992 4.76976 0.00000 -6.35968 0.00000 0.00000
10781 10774 10775 10776 3 33.20422 0.00000 -33.20422 0.00000 0.00000 0.00000 ; methylguanidinium ion
10781 10774 10775 10779 3 20.50160 0.00000 -20.50160 0.00000 0.00000 0.00000 ; imides
10782 10765 10766 10767 3 33.20422 0.00000 -33.20422 0.00000 0.00000 0.00000 ; methylguanidinium ion
10782 10765 10766 10773 3 30.28798 -4.81160 -25.47638 0.00000 0.00000 0.00000 ; imides
10784 3236 3235 3234 3 1.58992 4.76976 0.00000 -6.35968 0.00000 0.00000
10784 3236 3235 3237 3 1.58992 4.76976 0.00000 -6.35968 0.00000 0.00000
10784 3236 3235 3238 3 1.58992 4.76976 0.00000 -6.35968 0.00000 0.00000
10789 10790 10797 10798 3 30.28798 -4.81160 -25.47638 0.00000 0.00000 0.00000 ; imides
10789 10806 10807 10808 3 33.20422 0.00000 -33.20422 0.00000 0.00000 0.00000 ; methylguanidinium ion
10789 10806 10807 10812 3 20.50160 0.00000 -20.50160 0.00000 0.00000 0.00000 ; imides
10790 10789 10806 10805 3 30.28798 -4.81160 -25.47638 0.00000 0.00000 0.00000 ; imides
10790 10789 10806 10807 3 33.20422 0.00000 -33.20422 0.00000 0.00000 0.00000 ; methylguanidinium ion
10790 10797 10798 10799 3 33.20422 0.00000 -33.20422 0.00000 0.00000 0.00000 ; methylguanidinium ion
10790 10797 10798 10805 3 30.28798 -4.81160 -25.47638 0.00000 0.00000 0.00000 ; imides
10791 10790 10797 10798 3 33.20422 0.00000 -33.20422 0.00000 0.00000 0.00000 ; methylguanidinium ion
10792 2409 2408 2407 3 1.58992 4.76976 0.00000 -6.35968 0.00000 0.00000
10792 2409 2408 2410 3 1.58992 4.76976 0.00000 -6.35968 0.00000 0.00000
10792 2409 2408 2411 3 1.58992 4.76976 0.00000 -6.35968 0.00000 0.00000
10797 10790 10791 10792 3 33.20422 0.00000 -33.20422 0.00000 0.00000 0.00000 ; methylguanidinium ion
10797 10790 10791 10795 3 20.50160 0.00000 -20.50160 0.00000 0.00000 0.00000 ; imides
10797 10798 10805 10806 3 30.28798 -4.81160 -25.47638 0.00000 0.00000 0.00000 ; imides
10798 10805 10806 10789 3 30.28798 -4.81160 -25.47638 0.00000 0.00000 0.00000 ; imides
10798 10805 10806 10807 3 33.20422 0.00000 -33.20422 0.00000 0.00000 0.00000 ; methylguanidinium ion
10799 10798 10805 10806 3 33.20422 0.00000 -33.20422 0.00000 0.00000 0.00000 ; methylguanidinium ion
10800 773 772 771 3 1.58992 4.76976 0.00000 -6.35968 0.00000 0.00000
10800 773 772 774 3 1.58992 4.76976 0.00000 -6.35968 0.00000 0.00000
10800 773 772 775 3 1.58992 4.76976 0.00000 -6.35968 0.00000 0.00000
10805 10798 10799 10800 3 33.20422 0.00000 -33.20422 0.00000 0.00000 0.00000 ; methylguanidinium ion
10805 10798 10799 10803 3 20.50160 0.00000 -20.50160 0.00000 0.00000 0.00000 ; imides
10806 10789 10790 10791 3 33.20422 0.00000 -33.20422 0.00000 0.00000 0.00000 ; methylguanidinium ion
10806 10789 10790 10797 3 30.28798 -4.81160 -25.47638 0.00000 0.00000 0.00000 ; imides
10808 10809 12748 12747 3 1.58992 4.76976 0.00000 -6.35968 0.00000 0.00000
10808 10809 12748 12749 3 1.58992 4.76976 0.00000 -6.35968 0.00000 0.00000
10808 10809 12748 12750 3 1.58992 4.76976 0.00000 -6.35968 0.00000 0.00000
10809 12748 12747 12746 3 1.78866 3.49154 0.53555 -5.81576 0.00000 0.00000
10809 12748 12747 12751 3 -1.26775 3.02085 1.74473 -3.49782 0.00000 0.00000
10814 10815 10823 10824 3 30.28798 -4.81160 -25.47638 0.00000 0.00000 0.00000 ; imides
10814 10832 10833 10834 3 33.20422 0.00000 -33.20422 0.00000 0.00000 0.00000 ; methylguanidinium ion
10814 10832 10833 10837 3 20.50160 0.00000 -20.50160 0.00000 0.00000 0.00000 ; imides
10815 10814 10832 10831 3 30.28798 -4.81160 -25.47638 0.00000 0.00000 0.00000 ; imides
10815 10814 10832 10833 3 33.20422 0.00000 -33.20422 0.00000 0.00000 0.00000 ; methylguanidinium ion
10815 10823 10824 10825 3 33.20422 0.00000 -33.20422 0.00000 0.00000 0.00000 ; methylguanidinium ion
10815 10823 10824 10831 3 30.28798 -4.81160 -25.47638 0.00000 0.00000 0.00000 ; imides
10816 10815 10823 10824 3 33.20422 0.00000 -33.20422 0.00000 0.00000 0.00000 ; methylguanidinium ion
10817 10818 10852 10851 3 1.58992 4.76976 0.00000 -6.35968 0.00000 0.00000
10817 10818 10852 10853 3 1.58992 4.76976 0.00000 -6.35968 0.00000 0.00000
10817 10818 10852 10854 3 1.58992 4.76976 0.00000 -6.35968 0.00000 0.00000
10818 10852 10851 10850 3 1.78866 3.49154 0.53555 -5.81576 0.00000 0.00000
10818 10852 10851 10855 3 -1.26775 3.02085 1.74473 -3.49782 0.00000 0.00000
10823 10815 10816 10817 3 33.20422 0.00000 -33.20422 0.00000 0.00000 0.00000 ; methylguanidinium ion
10823 10815 10816 10821 3 20.50160 0.00000 -20.50160 0.00000 0.00000 0.00000 ; imides
10823 10824 10831 10832 3 30.28798 -4.81160 -25.47638 0.00000 0.00000 0.00000 ; imides
10824 10831 10832 10814 3 30.28798 -4.81160 -25.47638 0.00000 0.00000 0.00000 ; imides
10824 10831 10832 10833 3 33.20422 0.00000 -33.20422 0.00000 0.00000 0.00000 ; methylguanidinium ion
10825 10824 10831 10832 3 33.20422 0.00000 -33.20422 0.00000 0.00000 0.00000 ; methylguanidinium ion
10826 10434 10433 10432 3 1.58992 4.76976 0.00000 -6.35968 0.00000 0.00000
10826 10434 10433 10435 3 1.58992 4.76976 0.00000 -6.35968 0.00000 0.00000
10826 10434 10433 10436 3 1.58992 4.76976 0.00000 -6.35968 0.00000 0.00000
10831 10824 10825 10826 3 33.20422 0.00000 -33.20422 0.00000 0.00000 0.00000 ; methylguanidinium ion
10831 10824 10825 10829 3 20.50160 0.00000 -20.50160 0.00000 0.00000 0.00000 ; imides
10832 10814 10815 10816 3 33.20422 0.00000 -33.20422 0.00000 0.00000 0.00000 ; methylguanidinium ion
10832 10814 10815 10823 3 30.28798 -4.81160 -25.47638 0.00000 0.00000 0.00000 ; imides
10834 5035 5034 5033 3 1.58992 4.76976 0.00000 -6.35968 0.00000 0.00000
10834 5035 5034 5036 3 1.58992 4.76976 0.00000 -6.35968 0.00000 0.00000
10834 5035 5034 5037 3 1.58992 4.76976 0.00000 -6.35968 0.00000 0.00000
10839 10840 10849 10850 3 30.28798 -4.81160 -25.47638 0.00000 0.00000 0.00000 ; imides
10839 10858 10859 10860 3 33.20422 0.00000 -33.20422 0.00000 0.00000 0.00000 ; methylguanidinium ion
10839 10858 10859 10863 3 20.50160 0.00000 -20.50160 0.00000 0.00000 0.00000 ; imides
10840 10839 10858 10857 3 30.28798 -4.81160 -25.47638 0.00000 0.00000 0.00000 ; imides
10840 10839 10858 10859 3 33.20422 0.00000 -33.20422 0.00000 0.00000 0.00000 ; methylguanidinium ion
10840 10849 10850 10851 3 33.20422 0.00000 -33.20422 0.00000 0.00000 0.00000 ; methylguanidinium ion
10840 10849 10850 10857 3 30.28798 -4.81160 -25.47638 0.00000 0.00000 0.00000 ; imides
10841 10840 10849 10850 3 33.20422 0.00000 -33.20422 0.00000 0.00000 0.00000 ; methylguanidinium ion
10849 10840 10841 10842 3 33.20422 0.00000 -33.20422 0.00000 0.00000 0.00000 ; methylguanidinium ion
10849 10840 10841 10847 3 20.50160 0.00000 -20.50160 0.00000 0.00000 0.00000 ; imides
10849 10850 10857 10858 3 30.28798 -4.81160 -25.47638 0.00000 0.00000 0.00000 ; imides
10850 10857 10858 10839 3 30.28798 -4.81160 -25.47638 0.00000 0.00000 0.00000 ; imides
10850 10857 10858 10859 3 33.20422 0.00000 -33.20422 0.00000 0.00000 0.00000 ; methylguanidinium ion
10851 10850 10857 10858 3 33.20422 0.00000 -33.20422 0.00000 0.00000 0.00000 ; methylguanidinium ion
10852 10818 10817 10816 3 1.58992 4.76976 0.00000 -6.35968 0.00000 0.00000
10852 10818 10817 10819 3 1.58992 4.76976 0.00000 -6.35968 0.00000 0.00000
10852 10818 10817 10820 3 1.58992 4.76976 0.00000 -6.35968 0.00000 0.00000
10857 10850 10851 10852 3 33.20422 0.00000 -33.20422 0.00000 0.00000 0.00000 ; methylguanidinium ion
10857 10850 10851 10855 3 20.50160 0.00000 -20.50160 0.00000 0.00000 0.00000 ; imides
10858 10839 10840 10841 3 33.20422 0.00000 -33.20422 0.00000 0.00000 0.00000 ; methylguanidinium ion
10858 10839 10840 10849 3 30.28798 -4.81160 -25.47638 0.00000 0.00000 0.00000 ; imides
10860 9987 9986 9985 3 1.58992 4.76976 0.00000 -6.35968 0.00000 0.00000
10860 9987 9986 9988 3 1.58992 4.76976 0.00000 -6.35968 0.00000 0.00000
10860 9987 9986 9989 3 1.58992 4.76976 0.00000 -6.35968 0.00000 0.00000
10865 10866 10874 10875 3 30.28798 -4.81160 -25.47638 0.00000 0.00000 0.00000 ; imides
10865 10883 10884 10885 3 33.20422 0.00000 -33.20422 0.00000 0.00000 0.00000 ; methylguanidinium ion
10865 10883 10884 10890 3 20.50160 0.00000 -20.50160 0.00000 0.00000 0.00000 ; imides
10866 10865 10883 10882 3 30.28798 -4.81160 -25.47638 0.00000 0.00000 0.00000 ; imides
10866 10865 10883 10884 3 33.20422 0.00000 -33.20422 0.00000 0.00000 0.00000 ; methylguanidinium ion
10866 10874 10875 10876 3 33.20422 0.00000 -33.20422 0.00000 0.00000 0.00000 ; methylguanidinium ion
10866 10874 10875 10882 3 30.28798 -4.81160 -25.47638 0.00000 0.00000 0.00000 ; imides
10867 10866 10874 10875 3 33.20422 0.00000 -33.20422 0.00000 0.00000 0.00000 ; methylguanidinium ion
10868 10869 12812 12811 3 1.58992 4.76976 0.00000 -6.35968 0.00000 0.00000
10868 10869 12812 12813 3 1.58992 4.76976 0.00000 -6.35968 0.00000 0.00000
10868 10869 12812 12814 3 1.58992 4.76976 0.00000 -6.35968 0.00000 0.00000
10869 12812 12811 12810 3 1.78866 3.49154 0.53555 -5.81576 0.00000 0.00000
10869 12812 12811 12815 3 -1.26775 3.02085 1.74473 -3.49782 0.00000 0.00000
10874 10866 10867 10868 3 33.20422 0.00000 -33.20422 0.00000 0.00000 0.00000 ; methylguanidinium ion
10874 10866 10867 10872 3 20.50160 0.00000 -20.50160 0.00000 0.00000 0.00000 ; imides
10874 10875 10882 10883 3 30.28798 -4.81160 -25.47638 0.00000 0.00000 0.00000 ; imides
10875 10882 10883 10865 3 30.28798 -4.81160 -25.47638 0.00000 0.00000 0.00000 ; imides
10875 10882 10883 10884 3 33.20422 0.00000 -33.20422 0.00000 0.00000 0.00000 ; methylguanidinium ion
10876 10875 10882 10883 3 33.20422 0.00000 -33.20422 0.00000 0.00000 0.00000 ; methylguanidinium ion
10877 10676 10675 10674 3 1.58992 4.76976 0.00000 -6.35968 0.00000 0.00000
10877 10676 10675 10677 3 1.58992 4.76976 0.00000 -6.35968 0.00000 0.00000
10877 10676 10675 10678 3 1.58992 4.76976 0.00000 -6.35968 0.00000 0.00000
10882 10875 10876 10877 3 33.20422 0.00000 -33.20422 0.00000 0.00000 0.00000 ; methylguanidinium ion
10882 10875 10876 10880 3 20.50160 0.00000 -20.50160 0.00000 0.00000 0.00000 ; imides
10883 10865 10866 10867 3 33.20422 0.00000 -33.20422 0.00000 0.00000 0.00000 ; methylguanidinium ion
10883 10865 10866 10874 3 30.28798 -4.81160 -25.47638 0.00000 0.00000 0.00000 ; imides
10892 10893 10900 10901 3 30.28798 -4.81160 -25.47638 0.00000 0.00000 0.00000 ; imides
10892 10909 10910 10911 3 33.20422 0.00000 -33.20422 0.00000 0.00000 0.00000 ; methylguanidinium ion
10892 10909 10910 10914 3 20.50160 0.00000 -20.50160 0.00000 0.00000 0.00000 ; imides
10893 10892 10909 10908 3 30.28798 -4.81160 -25.47638 0.00000 0.00000 0.00000 ; imides
10893 10892 10909 10910 3 33.20422 0.00000 -33.20422 0.00000 0.00000 0.00000 ; methylguanidinium ion
10893 10900 10901 10902 3 33.20422 0.00000 -33.20422 0.00000 0.00000 0.00000 ; methylguanidinium ion
10893 10900 10901 10908 3 30.28798 -4.81160 -25.47638 0.00000 0.00000 0.00000 ; imides
10894 10893 10900 10901 3 33.20422 0.00000 -33.20422 0.00000 0.00000 0.00000 ; methylguanidinium ion
10895 8109 8108 8107 3 1.58992 4.76976 0.00000 -6.35968 0.00000 0.00000
10895 8109 8108 8110 3 1.58992 4.76976 0.00000 -6.35968 0.00000 0.00000
10895 8109 8108 8111 3 1.58992 4.76976 0.00000 -6.35968 0.00000 0.00000
10900 10893 10894 10895 3 33.20422 0.00000 -33.20422 0.00000 0.00000 0.00000 ; methylguanidinium ion
10900 10893 10894 10898 3 20.50160 0.00000 -20.50160 0.00000 0.00000 0.00000 ; imides
10900 10901 10908 10909 3 30.28798 -4.81160 -25.47638 0.00000 0.00000 0.00000 ; imides
10901 10908 10909 10892 3 30.28798 -4.81160 -25.47638 0.00000 0.00000 0.00000 ; imides
10901 10908 10909 10910 3 33.20422 0.00000 -33.20422 0.00000 0.00000 0.00000 ; methylguanidinium ion
10902 10901 10908 10909 3 33.20422 0.00000 -33.20422 0.00000 0.00000 0.00000 ; methylguanidinium ion
10903 2274 2273 2272 3 1.58992 4.76976 0.00000 -6.35968 0.00000 0.00000
10903 2274 2273 2275 3 1.58992 4.76976 0.00000 -6.35968 0.00000 0.00000
10903 2274 2273 2276 3 1.58992 4.76976 0.00000 -6.35968 0.00000 0.00000
10908 10901 10902 10903 3 33.20422 0.00000 -33.20422 0.00000 0.00000 0.00000 ; methylguanidinium ion
10908 10901 10902 10906 3 20.50160 0.00000 -20.50160 0.00000 0.00000 0.00000 ; imides
10909 10892 10893 10894 3 33.20422 0.00000 -33.20422 0.00000 0.00000 0.00000 ; methylguanidinium ion
10909 10892 10893 10900 3 30.28798 -4.81160 -25.47638 0.00000 0.00000 0.00000 ; imides
10911 3807 3806 3805 3 1.58992 4.76976 0.00000 -6.35968 0.00000 0.00000
10911 3807 3806 3808 3 1.58992 4.76976 0.00000 -6.35968 0.00000 0.00000
10911 3807 3806 3809 3 1.58992 4.76976 0.00000 -6.35968 0.00000 0.00000
10916 10917 10924 10925 3 30.28798 -4.81160 -25.47638 0.00000 0.00000 0.00000 ; imides
10916 10933 10934 10935 3 33.20422 0.00000 -33.20422 0.00000 0.00000 0.00000 ; methylguanidinium ion
10916 10933 10934 10938 3 20.50160 0.00000 -20.50160 0.00000 0.00000 0.00000 ; imides
10917 10916 10933 10932 3 30.28798 -4.81160 -25.47638 0.00000 0.00000 0.00000 ; imides
10917 10916 10933 10934 3 33.20422 0.00000 -33.20422 0.00000 0.00000 0.00000 ; methylguanidinium ion
10917 10924 10925 10926 3 33.20422 0.00000 -33.20422 0.00000 0.00000 0.00000 ; methylguanidinium ion
10917 10924 10925 10932 3 30.28798 -4.81160 -25.47638 0.00000 0.00000 0.00000 ; imides
10918 10917 10924 10925 3 33.20422 0.00000 -33.20422 0.00000 0.00000 0.00000 ; methylguanidinium ion
10919 7816 7815 7814 3 1.58992 4.76976 0.00000 -6.35968 0.00000 0.00000
10919 7816 7815 7817 3 1.58992 4.76976 0.00000 -6.35968 0.00000 0.00000
10919 7816 7815 7818 3 1.58992 4.76976 0.00000 -6.35968 0.00000 0.00000
10924 10917 10918 10919 3 33.20422 0.00000 -33.20422 0.00000 0.00000 0.00000 ; methylguanidinium ion
10924 10917 10918 10922 3 20.50160 0.00000 -20.50160 0.00000 0.00000 0.00000 ; imides
10924 10925 10932 10933 3 30.28798 -4.81160 -25.47638 0.00000 0.00000 0.00000 ; imides
10925 10932 10933 10916 3 30.28798 -4.81160 -25.47638 0.00000 0.00000 0.00000 ; imides
10925 10932 10933 10934 3 33.20422 0.00000 -33.20422 0.00000 0.00000 0.00000 ; methylguanidinium ion
10926 10925 10932 10933 3 33.20422 0.00000 -33.20422 0.00000 0.00000 0.00000 ; methylguanidinium ion
10927 1478 1477 1476 3 1.58992 4.76976 0.00000 -6.35968 0.00000 0.00000
10927 1478 1477 1479 3 1.58992 4.76976 0.00000 -6.35968 0.00000 0.00000
10927 1478 1477 1480 3 1.58992 4.76976 0.00000 -6.35968 0.00000 0.00000
10932 10925 10926 10927 3 33.20422 0.00000 -33.20422 0.00000 0.00000 0.00000 ; methylguanidinium ion
10932 10925 10926 10930 3 20.50160 0.00000 -20.50160 0.00000 0.00000 0.00000 ; imides
10933 10916 10917 10918 3 33.20422 0.00000 -33.20422 0.00000 0.00000 0.00000 ; methylguanidinium ion
10933 10916 10917 10924 3 30.28798 -4.81160 -25.47638 0.00000 0.00000 0.00000 ; imides
10935 8862 8861 8860 3 1.58992 4.76976 0.00000 -6.35968 0.00000 0.00000
10935 8862 8861 8863 3 1.58992 4.76976 0.00000 -6.35968 0.00000 0.00000
10935 8862 8861 8864 3 1.58992 4.76976 0.00000 -6.35968 0.00000 0.00000
10940 10941 10949 10950 3 30.28798 -4.81160 -25.47638 0.00000 0.00000 0.00000 ; imides
10940 10960 10961 10962 3 33.20422 0.00000 -33.20422 0.00000 0.00000 0.00000 ; methylguanidinium ion
10940 10960 10961 10965 3 20.50160 0.00000 -20.50160 0.00000 0.00000 0.00000 ; imides
10941 10940 10960 10959 3 30.28798 -4.81160 -25.47638 0.00000 0.00000 0.00000 ; imides
10941 10940 10960 10961 3 33.20422 0.00000 -33.20422 0.00000 0.00000 0.00000 ; methylguanidinium ion
10941 10949 10950 10951 3 33.20422 0.00000 -33.20422 0.00000 0.00000 0.00000 ; methylguanidinium ion
10941 10949 10950 10959 3 30.28798 -4.81160 -25.47638 0.00000 0.00000 0.00000 ; imides
10942 10941 10949 10950 3 33.20422 0.00000 -33.20422 0.00000 0.00000 0.00000 ; methylguanidinium ion
10943 10944 11192 11191 3 1.58992 4.76976 0.00000 -6.35968 0.00000 0.00000
10943 10944 11192 11193 3 1.58992 4.76976 0.00000 -6.35968 0.00000 0.00000
10943 10944 11192 11194 3 1.58992 4.76976 0.00000 -6.35968 0.00000 0.00000
10944 11192 11191 11190 3 1.78866 3.49154 0.53555 -5.81576 0.00000 0.00000
10944 11192 11191 11195 3 -1.26775 3.02085 1.74473 -3.49782 0.00000 0.00000
10949 10941 10942 10943 3 33.20422 0.00000 -33.20422 0.00000 0.00000 0.00000 ; methylguanidinium ion
10949 10941 10942 10947 3 20.50160 0.00000 -20.50160 0.00000 0.00000 0.00000 ; imides
10949 10950 10959 10960 3 30.28798 -4.81160 -25.47638 0.00000 0.00000 0.00000 ; imides
10950 10959 10960 10940 3 30.28798 -4.81160 -25.47638 0.00000 0.00000 0.00000 ; imides
10950 10959 10960 10961 3 33.20422 0.00000 -33.20422 0.00000 0.00000 0.00000 ; methylguanidinium ion
10951 10950 10959 10960 3 33.20422 0.00000 -33.20422 0.00000 0.00000 0.00000 ; methylguanidinium ion
10959 10950 10951 10952 3 33.20422 0.00000 -33.20422 0.00000 0.00000 0.00000 ; methylguanidinium ion
10959 10950 10951 10957 3 20.50160 0.00000 -20.50160 0.00000 0.00000 0.00000 ; imides
10960 10940 10941 10942 3 33.20422 0.00000 -33.20422 0.00000 0.00000 0.00000 ; methylguanidinium ion
10960 10940 10941 10949 3 30.28798 -4.81160 -25.47638 0.00000 0.00000 0.00000 ; imides
10962 8575 8574 8573 3 1.58992 4.76976 0.00000 -6.35968 0.00000 0.00000
10962 8575 8574 8576 3 1.58992 4.76976 0.00000 -6.35968 0.00000 0.00000
10962 8575 8574 8577 3 1.58992 4.76976 0.00000 -6.35968 0.00000 0.00000
10967 10968 10975 10976 3 30.28798 -4.81160 -25.47638 0.00000 0.00000 0.00000 ; imides
10967 10984 10985 10986 3 33.20422 0.00000 -33.20422 0.00000 0.00000 0.00000 ; methylguanidinium ion
10967 10984 10985 10989 3 20.50160 0.00000 -20.50160 0.00000 0.00000 0.00000 ; imides
10968 10967 10984 10983 3 30.28798 -4.81160 -25.47638 0.00000 0.00000 0.00000 ; imides
10968 10967 10984 10985 3 33.20422 0.00000 -33.20422 0.00000 0.00000 0.00000 ; methylguanidinium ion
10968 10975 10976 10977 3 33.20422 0.00000 -33.20422 0.00000 0.00000 0.00000 ; methylguanidinium ion
10968 10975 10976 10983 3 30.28798 -4.81160 -25.47638 0.00000 0.00000 0.00000 ; imides
10969 10968 10975 10976 3 33.20422 0.00000 -33.20422 0.00000 0.00000 0.00000 ; methylguanidinium ion
10970 590 589 588 3 1.58992 4.76976 0.00000 -6.35968 0.00000 0.00000
10970 590 589 591 3 1.58992 4.76976 0.00000 -6.35968 0.00000 0.00000
10970 590 589 592 3 1.58992 4.76976 0.00000 -6.35968 0.00000 0.00000
10975 10968 10969 10970 3 33.20422 0.00000 -33.20422 0.00000 0.00000 0.00000 ; methylguanidinium ion
10975 10968 10969 10973 3 20.50160 0.00000 -20.50160 0.00000 0.00000 0.00000 ; imides
10975 10976 10983 10984 3 30.28798 -4.81160 -25.47638 0.00000 0.00000 0.00000 ; imides
10976 10983 10984 10967 3 30.28798 -4.81160 -25.47638 0.00000 0.00000 0.00000 ; imides
10976 10983 10984 10985 3 33.20422 0.00000 -33.20422 0.00000 0.00000 0.00000 ; methylguanidinium ion
10977 10976 10983 10984 3 33.20422 0.00000 -33.20422 0.00000 0.00000 0.00000 ; methylguanidinium ion
10978 4534 4533 4532 3 1.58992 4.76976 0.00000 -6.35968 0.00000 0.00000
10978 4534 4533 4535 3 1.58992 4.76976 0.00000 -6.35968 0.00000 0.00000
10978 4534 4533 4536 3 1.58992 4.76976 0.00000 -6.35968 0.00000 0.00000
10983 10976 10977 10978 3 33.20422 0.00000 -33.20422 0.00000 0.00000 0.00000 ; methylguanidinium ion
10983 10976 10977 10981 3 20.50160 0.00000 -20.50160 0.00000 0.00000 0.00000 ; imides
10984 10967 10968 10969 3 33.20422 0.00000 -33.20422 0.00000 0.00000 0.00000 ; methylguanidinium ion
10984 10967 10968 10975 3 30.28798 -4.81160 -25.47638 0.00000 0.00000 0.00000 ; imides
10986 7100 7099 7098 3 1.58992 4.76976 0.00000 -6.35968 0.00000 0.00000
10986 7100 7099 7101 3 1.58992 4.76976 0.00000 -6.35968 0.00000 0.00000
10986 7100 7099 7102 3 1.58992 4.76976 0.00000 -6.35968 0.00000 0.00000
10991 10992 10999 11000 3 30.28798 -4.81160 -25.47638 0.00000 0.00000 0.00000 ; imides
10991 11008 11009 11010 3 33.20422 0.00000 -33.20422 0.00000 0.00000 0.00000 ; methylguanidinium ion
10991 11008 11009 11014 3 20.50160 0.00000 -20.50160 0.00000 0.00000 0.00000 ; imides
10992 10991 11008 11007 3 30.28798 -4.81160 -25.47638 0.00000 0.00000 0.00000 ; imides
10992 10991 11008 11009 3 33.20422 0.00000 -33.20422 0.00000 0.00000 0.00000 ; methylguanidinium ion
10992 10999 11000 11001 3 33.20422 0.00000 -33.20422 0.00000 0.00000 0.00000 ; methylguanidinium ion
10992 10999 11000 11007 3 30.28798 -4.81160 -25.47638 0.00000 0.00000 0.00000 ; imides
10993 10992 10999 11000 3 33.20422 0.00000 -33.20422 0.00000 0.00000 0.00000 ; methylguanidinium ion
10994 5782 5781 5780 3 1.58992 4.76976 0.00000 -6.35968 0.00000 0.00000
10994 5782 5781 5783 3 1.58992 4.76976 0.00000 -6.35968 0.00000 0.00000
10994 5782 5781 5784 3 1.58992 4.76976 0.00000 -6.35968 0.00000 0.00000
10999 10992 10993 10994 3 33.20422 0.00000 -33.20422 0.00000 0.00000 0.00000 ; methylguanidinium ion
10999 10992 10993 10997 3 20.50160 0.00000 -20.50160 0.00000 0.00000 0.00000 ; imides
10999 11000 11007 11008 3 30.28798 -4.81160 -25.47638 0.00000 0.00000 0.00000 ; imides
11000 11007 11008 10991 3 30.28798 -4.81160 -25.47638 0.00000 0.00000 0.00000 ; imides
11000 11007 11008 11009 3 33.20422 0.00000 -33.20422 0.00000 0.00000 0.00000 ; methylguanidinium ion
11001 11000 11007 11008 3 33.20422 0.00000 -33.20422 0.00000 0.00000 0.00000 ; methylguanidinium ion
11002 2173 2172 2171 3 1.58992 4.76976 0.00000 -6.35968 0.00000 0.00000
11002 2173 2172 2174 3 1.58992 4.76976 0.00000 -6.35968 0.00000 0.00000
11002 2173 2172 2175 3 1.58992 4.76976 0.00000 -6.35968 0.00000 0.00000
11007 11000 11001 11002 3 33.20422 0.00000 -33.20422 0.00000 0.00000 0.00000 ; methylguanidinium ion
11007 11000 11001 11005 3 20.50160 0.00000 -20.50160 0.00000 0.00000 0.00000 ; imides
11008 10991 10992 10993 3 33.20422 0.00000 -33.20422 0.00000 0.00000 0.00000 ; methylguanidinium ion
11008 10991 10992 10999 3 30.28798 -4.81160 -25.47638 0.00000 0.00000 0.00000 ; imides
11010 11011 12618 12617 3 1.58992 4.76976 0.00000 -6.35968 0.00000 0.00000
11010 11011 12618 12619 3 1.58992 4.76976 0.00000 -6.35968 0.00000 0.00000
11010 11011 12618 12620 3 1.58992 4.76976 0.00000 -6.35968 0.00000 0.00000
11011 12618 12617 12616 3 1.78866 3.49154 0.53555 -5.81576 0.00000 0.00000
11011 12618 12617 12621 3 -1.26775 3.02085 1.74473 -3.49782 0.00000 0.00000
11016 11017 11024 11025 3 30.28798 -4.81160 -25.47638 0.00000 0.00000 0.00000 ; imides
11016 11034 11035 11036 3 33.20422 0.00000 -33.20422 0.00000 0.00000 0.00000 ; methylguanidinium ion
11016 11034 11035 11039 3 20.50160 0.00000 -20.50160 0.00000 0.00000 0.00000 ; imides
11017 11016 11034 11033 3 30.28798 -4.81160 -25.47638 0.00000 0.00000 0.00000 ; imides
11017 11016 11034 11035 3 33.20422 0.00000 -33.20422 0.00000 0.00000 0.00000 ; methylguanidinium ion
11017 11024 11025 11026 3 33.20422 0.00000 -33.20422 0.00000 0.00000 0.00000 ; methylguanidinium ion
11017 11024 11025 11033 3 30.28798 -4.81160 -25.47638 0.00000 0.00000 0.00000 ; imides
11018 11017 11024 11025 3 33.20422 0.00000 -33.20422 0.00000 0.00000 0.00000 ; methylguanidinium ion
11019 7539 7538 7537 3 1.58992 4.76976 0.00000 -6.35968 0.00000 0.00000
11019 7539 7538 7540 3 1.58992 4.76976 0.00000 -6.35968 0.00000 0.00000
11019 7539 7538 7541 3 1.58992 4.76976 0.00000 -6.35968 0.00000 0.00000
11024 11017 11018 11019 3 33.20422 0.00000 -33.20422 0.00000 0.00000 0.00000 ; methylguanidinium ion
11024 11017 11018 11022 3 20.50160 0.00000 -20.50160 0.00000 0.00000 0.00000 ; imides
11024 11025 11033 11034 3 30.28798 -4.81160 -25.47638 0.00000 0.00000 0.00000 ; imides
11025 11033 11034 11016 3 30.28798 -4.81160 -25.47638 0.00000 0.00000 0.00000 ; imides
11025 11033 11034 11035 3 33.20422 0.00000 -33.20422 0.00000 0.00000 0.00000 ; methylguanidinium ion
11026 11025 11033 11034 3 33.20422 0.00000 -33.20422 0.00000 0.00000 0.00000 ; methylguanidinium ion
11027 11028 12155 12154 3 1.58992 4.76976 0.00000 -6.35968 0.00000 0.00000
11027 11028 12155 12156 3 1.58992 4.76976 0.00000 -6.35968 0.00000 0.00000
11027 11028 12155 12157 3 1.58992 4.76976 0.00000 -6.35968 0.00000 0.00000
11028 12155 12154 12153 3 1.78866 3.49154 0.53555 -5.81576 0.00000 0.00000
11028 12155 12154 12158 3 -1.26775 3.02085 1.74473 -3.49782 0.00000 0.00000
11033 11025 11026 11027 3 33.20422 0.00000 -33.20422 0.00000 0.00000 0.00000 ; methylguanidinium ion
11033 11025 11026 11031 3 20.50160 0.00000 -20.50160 0.00000 0.00000 0.00000 ; imides
11034 11016 11017 11018 3 33.20422 0.00000 -33.20422 0.00000 0.00000 0.00000 ; methylguanidinium ion
11034 11016 11017 11024 3 30.28798 -4.81160 -25.47638 0.00000 0.00000 0.00000 ; imides
11036 5079 5078 5077 3 1.58992 4.76976 0.00000 -6.35968 0.00000 0.00000
11036 5079 5078 5080 3 1.58992 4.76976 0.00000 -6.35968 0.00000 0.00000
11036 5079 5078 5081 3 1.58992 4.76976 0.00000 -6.35968 0.00000 0.00000
11041 11042 11049 11050 3 30.28798 -4.81160 -25.47638 0.00000 0.00000 0.00000 ; imides
11041 11058 11059 11060 3 33.20422 0.00000 -33.20422 0.00000 0.00000 0.00000 ; methylguanidinium ion
11041 11058 11059 11063 3 20.50160 0.00000 -20.50160 0.00000 0.00000 0.00000 ; imides
11042 11041 11058 11057 3 30.28798 -4.81160 -25.47638 0.00000 0.00000 0.00000 ; imides
11042 11041 11058 11059 3 33.20422 0.00000 -33.20422 0.00000 0.00000 0.00000 ; methylguanidinium ion
11042 11049 11050 11051 3 33.20422 0.00000 -33.20422 0.00000 0.00000 0.00000 ; methylguanidinium ion
11042 11049 11050 11057 3 30.28798 -4.81160 -25.47638 0.00000 0.00000 0.00000 ; imides
11043 11042 11049 11050 3 33.20422 0.00000 -33.20422 0.00000 0.00000 0.00000 ; methylguanidinium ion
11044 9570 9569 9568 3 1.58992 4.76976 0.00000 -6.35968 0.00000 0.00000
11044 9570 9569 9571 3 1.58992 4.76976 0.00000 -6.35968 0.00000 0.00000
11044 9570 9569 9572 3 1.58992 4.76976 0.00000 -6.35968 0.00000 0.00000
11049 11042 11043 11044 3 33.20422 0.00000 -33.20422 0.00000 0.00000 0.00000 ; methylguanidinium ion
11049 11042 11043 11047 3 20.50160 0.00000 -20.50160 0.00000 0.00000 0.00000 ; imides
11049 11050 11057 11058 3 30.28798 -4.81160 -25.47638 0.00000 0.00000 0.00000 ; imides
11050 11057 11058 11041 3 30.28798 -4.81160 -25.47638 0.00000 0.00000 0.00000 ; imides
11050 11057 11058 11059 3 33.20422 0.00000 -33.20422 0.00000 0.00000 0.00000 ; methylguanidinium ion
11051 11050 11057 11058 3 33.20422 0.00000 -33.20422 0.00000 0.00000 0.00000 ; methylguanidinium ion
11052 1782 1781 1780 3 1.58992 4.76976 0.00000 -6.35968 0.00000 0.00000
11052 1782 1781 1783 3 1.58992 4.76976 0.00000 -6.35968 0.00000 0.00000
11052 1782 1781 1784 3 1.58992 4.76976 0.00000 -6.35968 0.00000 0.00000
11057 11050 11051 11052 3 33.20422 0.00000 -33.20422 0.00000 0.00000 0.00000 ; methylguanidinium ion
11057 11050 11051 11055 3 20.50160 0.00000 -20.50160 0.00000 0.00000 0.00000 ; imides
11058 11041 11042 11043 3 33.20422 0.00000 -33.20422 0.00000 0.00000 0.00000 ; methylguanidinium ion
11058 11041 11042 11049 3 30.28798 -4.81160 -25.47638 0.00000 0.00000 0.00000 ; imides
11060 4483 4482 4481 3 1.58992 4.76976 0.00000 -6.35968 0.00000 0.00000
11060 4483 4482 4484 3 1.58992 4.76976 0.00000 -6.35968 0.00000 0.00000
11060 4483 4482 4485 3 1.58992 4.76976 0.00000 -6.35968 0.00000 0.00000
11065 11066 11073 11074 3 30.28798 -4.81160 -25.47638 0.00000 0.00000 0.00000 ; imides
11065 11082 11083 11084 3 33.20422 0.00000 -33.20422 0.00000 0.00000 0.00000 ; methylguanidinium ion
11065 11082 11083 11087 3 20.50160 0.00000 -20.50160 0.00000 0.00000 0.00000 ; imides
11066 11065 11082 11081 3 30.28798 -4.81160 -25.47638 0.00000 0.00000 0.00000 ; imides
11066 11065 11082 11083 3 33.20422 0.00000 -33.20422 0.00000 0.00000 0.00000 ; methylguanidinium ion
11066 11073 11074 11075 3 33.20422 0.00000 -33.20422 0.00000 0.00000 0.00000 ; methylguanidinium ion
11066 11073 11074 11081 3 30.28798 -4.81160 -25.47638 0.00000 0.00000 0.00000 ; imides
11067 11066 11073 11074 3 33.20422 0.00000 -33.20422 0.00000 0.00000 0.00000 ; methylguanidinium ion
11068 5320 5319 5318 3 1.58992 4.76976 0.00000 -6.35968 0.00000 0.00000
11068 5320 5319 5321 3 1.58992 4.76976 0.00000 -6.35968 0.00000 0.00000
11068 5320 5319 5322 3 1.58992 4.76976 0.00000 -6.35968 0.00000 0.00000
11073 11066 11067 11068 3 33.20422 0.00000 -33.20422 0.00000 0.00000 0.00000 ; methylguanidinium ion
11073 11066 11067 11071 3 20.50160 0.00000 -20.50160 0.00000 0.00000 0.00000 ; imides
11073 11074 11081 11082 3 30.28798 -4.81160 -25.47638 0.00000 0.00000 0.00000 ; imides
11074 11081 11082 11065 3 30.28798 -4.81160 -25.47638 0.00000 0.00000 0.00000 ; imides
11074 11081 11082 11083 3 33.20422 0.00000 -33.20422 0.00000 0.00000 0.00000 ; methylguanidinium ion
11075 11074 11081 11082 3 33.20422 0.00000 -33.20422 0.00000 0.00000 0.00000 ; methylguanidinium ion
11076 6824 6823 6822 3 1.58992 4.76976 0.00000 -6.35968 0.00000 0.00000
11076 6824 6823 6825 3 1.58992 4.76976 0.00000 -6.35968 0.00000 0.00000
11076 6824 6823 6826 3 1.58992 4.76976 0.00000 -6.35968 0.00000 0.00000
11081 11074 11075 11076 3 33.20422 0.00000 -33.20422 0.00000 0.00000 0.00000 ; methylguanidinium ion
11081 11074 11075 11079 3 20.50160 0.00000 -20.50160 0.00000 0.00000 0.00000 ; imides
11082 11065 11066 11067 3 33.20422 0.00000 -33.20422 0.00000 0.00000 0.00000 ; methylguanidinium ion
11082 11065 11066 11073 3 30.28798 -4.81160 -25.47638 0.00000 0.00000 0.00000 ; imides
11084 6216 6215 6214 3 1.58992 4.76976 0.00000 -6.35968 0.00000 0.00000
11084 6216 6215 6217 3 1.58992 4.76976 0.00000 -6.35968 0.00000 0.00000
11084 6216 6215 6218 3 1.58992 4.76976 0.00000 -6.35968 0.00000 0.00000
11089 11090 11097 11098 3 30.28798 -4.81160 -25.47638 0.00000 0.00000 0.00000 ; imides
11089 11106 11107 11108 3 33.20422 0.00000 -33.20422 0.00000 0.00000 0.00000 ; methylguanidinium ion
11089 11106 11107 11111 3 20.50160 0.00000 -20.50160 0.00000 0.00000 0.00000 ; imides
11090 11089 11106 11105 3 30.28798 -4.81160 -25.47638 0.00000 0.00000 0.00000 ; imides
11090 11089 11106 11107 3 33.20422 0.00000 -33.20422 0.00000 0.00000 0.00000 ; methylguanidinium ion
11090 11097 11098 11099 3 33.20422 0.00000 -33.20422 0.00000 0.00000 0.00000 ; methylguanidinium ion
11090 11097 11098 11105 3 30.28798 -4.81160 -25.47638 0.00000 0.00000 0.00000 ; imides
11091 11090 11097 11098 3 33.20422 0.00000 -33.20422 0.00000 0.00000 0.00000 ; methylguanidinium ion
11092 572 571 570 3 1.58992 4.76976 0.00000 -6.35968 0.00000 0.00000
11092 572 571 573 3 1.58992 4.76976 0.00000 -6.35968 0.00000 0.00000
11092 572 571 574 3 1.58992 4.76976 0.00000 -6.35968 0.00000 0.00000
11097 11090 11091 11092 3 33.20422 0.00000 -33.20422 0.00000 0.00000 0.00000 ; methylguanidinium ion
11097 11090 11091 11095 3 20.50160 0.00000 -20.50160 0.00000 0.00000 0.00000 ; imides
11097 11098 11105 11106 3 30.28798 -4.81160 -25.47638 0.00000 0.00000 0.00000 ; imides
11098 11105 11106 11089 3 30.28798 -4.81160 -25.47638 0.00000 0.00000 0.00000 ; imides
11098 11105 11106 11107 3 33.20422 0.00000 -33.20422 0.00000 0.00000 0.00000 ; methylguanidinium ion
11099 11098 11105 11106 3 33.20422 0.00000 -33.20422 0.00000 0.00000 0.00000 ; methylguanidinium ion
11100 7791 7790 7789 3 1.58992 4.76976 0.00000 -6.35968 0.00000 0.00000
11100 7791 7790 7792 3 1.58992 4.76976 0.00000 -6.35968 0.00000 0.00000
11100 7791 7790 7793 3 1.58992 4.76976 0.00000 -6.35968 0.00000 0.00000
11105 11098 11099 11100 3 33.20422 0.00000 -33.20422 0.00000 0.00000 0.00000 ; methylguanidinium ion
11105 11098 11099 11103 3 20.50160 0.00000 -20.50160 0.00000 0.00000 0.00000 ; imides
11106 11089 11090 11091 3 33.20422 0.00000 -33.20422 0.00000 0.00000 0.00000 ; methylguanidinium ion
11106 11089 11090 11097 3 30.28798 -4.81160 -25.47638 0.00000 0.00000 0.00000 ; imides
11108 8541 8540 8539 3 1.58992 4.76976 0.00000 -6.35968 0.00000 0.00000
11108 8541 8540 8542 3 1.58992 4.76976 0.00000 -6.35968 0.00000 0.00000
11108 8541 8540 8543 3 1.58992 4.76976 0.00000 -6.35968 0.00000 0.00000
11113 11114 11121 11122 3 30.28798 -4.81160 -25.47638 0.00000 0.00000 0.00000 ; imides
11113 11130 11131 11132 3 33.20422 0.00000 -33.20422 0.00000 0.00000 0.00000 ; methylguanidinium ion
11113 11130 11131 11136 3 20.50160 0.00000 -20.50160 0.00000 0.00000 0.00000 ; imides
11114 11113 11130 11129 3 30.28798 -4.81160 -25.47638 0.00000 0.00000 0.00000 ; imides
11114 11113 11130 11131 3 33.20422 0.00000 -33.20422 0.00000 0.00000 0.00000 ; methylguanidinium ion
11114 11121 11122 11123 3 33.20422 0.00000 -33.20422 0.00000 0.00000 0.00000 ; methylguanidinium ion
11114 11121 11122 11129 3 30.28798 -4.81160 -25.47638 0.00000 0.00000 0.00000 ; imides
11115 11114 11121 11122 3 33.20422 0.00000 -33.20422 0.00000 0.00000 0.00000 ; methylguanidinium ion
11116 7695 7694 7693 3 1.58992 4.76976 0.00000 -6.35968 0.00000 0.00000
11116 7695 7694 7696 3 1.58992 4.76976 0.00000 -6.35968 0.00000 0.00000
11116 7695 7694 7697 3 1.58992 4.76976 0.00000 -6.35968 0.00000 0.00000
11121 11114 11115 11116 3 33.20422 0.00000 -33.20422 0.00000 0.00000 0.00000 ; methylguanidinium ion
11121 11114 11115 11119 3 20.50160 0.00000 -20.50160 0.00000 0.00000 0.00000 ; imides
11121 11122 11129 11130 3 30.28798 -4.81160 -25.47638 0.00000 0.00000 0.00000 ; imides
11122 11129 11130 11113 3 30.28798 -4.81160 -25.47638 0.00000 0.00000 0.00000 ; imides
11122 11129 11130 11131 3 33.20422 0.00000 -33.20422 0.00000 0.00000 0.00000 ; methylguanidinium ion
11123 11122 11129 11130 3 33.20422 0.00000 -33.20422 0.00000 0.00000 0.00000 ; methylguanidinium ion
11124 3850 3849 3848 3 1.58992 4.76976 0.00000 -6.35968 0.00000 0.00000
11124 3850 3849 3851 3 1.58992 4.76976 0.00000 -6.35968 0.00000 0.00000
11124 3850 3849 3852 3 1.58992 4.76976 0.00000 -6.35968 0.00000 0.00000
11129 11122 11123 11124 3 33.20422 0.00000 -33.20422 0.00000 0.00000 0.00000 ; methylguanidinium ion
11129 11122 11123 11127 3 20.50160 0.00000 -20.50160 0.00000 0.00000 0.00000 ; imides
11130 11113 11114 11115 3 33.20422 0.00000 -33.20422 0.00000 0.00000 0.00000 ; methylguanidinium ion
11130 11113 11114 11121 3 30.28798 -4.81160 -25.47638 0.00000 0.00000 0.00000 ; imides
11132 11133 11141 11140 3 1.58992 4.76976 0.00000 -6.35968 0.00000 0.00000
11132 11133 11141 11142 3 1.58992 4.76976 0.00000 -6.35968 0.00000 0.00000
11132 11133 11141 11143 3 1.58992 4.76976 0.00000 -6.35968 0.00000 0.00000
11133 11141 11140 11139 3 1.78866 3.49154 0.53555 -5.81576 0.00000 0.00000
11133 11141 11140 11144 3 -1.26775 3.02085 1.74473 -3.49782 0.00000 0.00000
11138 11139 11146 11147 3 30.28798 -4.81160 -25.47638 0.00000 0.00000 0.00000 ; imides
11138 11156 11157 11158 3 33.20422 0.00000 -33.20422 0.00000 0.00000 0.00000 ; methylguanidinium ion
11138 11156 11157 11161 3 20.50160 0.00000 -20.50160 0.00000 0.00000 0.00000 ; imides
11139 11138 11156 11155 3 30.28798 -4.81160 -25.47638 0.00000 0.00000 0.00000 ; imides
11139 11138 11156 11157 3 33.20422 0.00000 -33.20422 0.00000 0.00000 0.00000 ; methylguanidinium ion
11139 11146 11147 11148 3 33.20422 0.00000 -33.20422 0.00000 0.00000 0.00000 ; methylguanidinium ion
11139 11146 11147 11155 3 30.28798 -4.81160 -25.47638 0.00000 0.00000 0.00000 ; imides
11140 11139 11146 11147 3 33.20422 0.00000 -33.20422 0.00000 0.00000 0.00000 ; methylguanidinium ion
11141 11133 11132 11131 3 1.58992 4.76976 0.00000 -6.35968 0.00000 0.00000
11141 11133 11132 11134 3 1.58992 4.76976 0.00000 -6.35968 0.00000 0.00000
11141 11133 11132 11135 3 1.58992 4.76976 0.00000 -6.35968 0.00000 0.00000
11146 11139 11140 11141 3 33.20422 0.00000 -33.20422 0.00000 0.00000 0.00000 ; methylguanidinium ion
11146 11139 11140 11144 3 20.50160 0.00000 -20.50160 0.00000 0.00000 0.00000 ; imides
11146 11147 11155 11156 3 30.28798 -4.81160 -25.47638 0.00000 0.00000 0.00000 ; imides
11147 11155 11156 11138 3 30.28798 -4.81160 -25.47638 0.00000 0.00000 0.00000 ; imides
11147 11155 11156 11157 3 33.20422 0.00000 -33.20422 0.00000 0.00000 0.00000 ; methylguanidinium ion
11148 11147 11155 11156 3 33.20422 0.00000 -33.20422 0.00000 0.00000 0.00000 ; methylguanidinium ion
11149 11150 12460 12459 3 1.58992 4.76976 0.00000 -6.35968 0.00000 0.00000
11149 11150 12460 12461 3 1.58992 4.76976 0.00000 -6.35968 0.00000 0.00000
11149 11150 12460 12462 3 1.58992 4.76976 0.00000 -6.35968 0.00000 0.00000
11150 12460 12459 12458 3 1.78866 3.49154 0.53555 -5.81576 0.00000 0.00000
11150 12460 12459 12463 3 -1.26775 3.02085 1.74473 -3.49782 0.00000 0.00000
11155 11147 11148 11149 3 33.20422 0.00000 -33.20422 0.00000 0.00000 0.00000 ; methylguanidinium ion
11155 11147 11148 11153 3 20.50160 0.00000 -20.50160 0.00000 0.00000 0.00000 ; imides
11156 11138 11139 11140 3 33.20422 0.00000 -33.20422 0.00000 0.00000 0.00000 ; methylguanidinium ion
11156 11138 11139 11146 3 30.28798 -4.81160 -25.47638 0.00000 0.00000 0.00000 ; imides
11158 6272 6271 6270 3 1.58992 4.76976 0.00000 -6.35968 0.00000 0.00000
11158 6272 6271 6273 3 1.58992 4.76976 0.00000 -6.35968 0.00000 0.00000
11158 6272 6271 6274 3 1.58992 4.76976 0.00000 -6.35968 0.00000 0.00000
11163 11164 11171 11172 3 30.28798 -4.81160 -25.47638 0.00000 0.00000 0.00000 ; imides
11163 11182 11183 11184 3 33.20422 0.00000 -33.20422 0.00000 0.00000 0.00000 ; methylguanidinium ion
11163 11182 11183 11187 3 20.50160 0.00000 -20.50160 0.00000 0.00000 0.00000 ; imides
11164 11163 11182 11181 3 30.28798 -4.81160 -25.47638 0.00000 0.00000 0.00000 ; imides
11164 11163 11182 11183 3 33.20422 0.00000 -33.20422 0.00000 0.00000 0.00000 ; methylguanidinium ion
11164 11171 11172 11173 3 33.20422 0.00000 -33.20422 0.00000 0.00000 0.00000 ; methylguanidinium ion
11164 11171 11172 11181 3 30.28798 -4.81160 -25.47638 0.00000 0.00000 0.00000 ; imides
11165 11164 11171 11172 3 33.20422 0.00000 -33.20422 0.00000 0.00000 0.00000 ; methylguanidinium ion
11166 961 960 959 3 1.58992 4.76976 0.00000 -6.35968 0.00000 0.00000
11166 961 960 962 3 1.58992 4.76976 0.00000 -6.35968 0.00000 0.00000
11166 961 960 963 3 1.58992 4.76976 0.00000 -6.35968 0.00000 0.00000
11171 11164 11165 11166 3 33.20422 0.00000 -33.20422 0.00000 0.00000 0.00000 ; methylguanidinium ion
11171 11164 11165 11169 3 20.50160 0.00000 -20.50160 0.00000 0.00000 0.00000 ; imides
11171 11172 11181 11182 3 30.28798 -4.81160 -25.47638 0.00000 0.00000 0.00000 ; imides
11172 11181 11182 11163 3 30.28798 -4.81160 -25.47638 0.00000 0.00000 0.00000 ; imides
11172 11181 11182 11183 3 33.20422 0.00000 -33.20422 0.00000 0.00000 0.00000 ; methylguanidinium ion
11173 11172 11181 11182 3 33.20422 0.00000 -33.20422 0.00000 0.00000 0.00000 ; methylguanidinium ion
11181 11172 11173 11174 3 33.20422 0.00000 -33.20422 0.00000 0.00000 0.00000 ; methylguanidinium ion
11181 11172 11173 11179 3 20.50160 0.00000 -20.50160 0.00000 0.00000 0.00000 ; imides
11182 11163 11164 11165 3 33.20422 0.00000 -33.20422 0.00000 0.00000 0.00000 ; methylguanidinium ion
11182 11163 11164 11171 3 30.28798 -4.81160 -25.47638 0.00000 0.00000 0.00000 ; imides
11184 7979 7978 7977 3 1.58992 4.76976 0.00000 -6.35968 0.00000 0.00000
11184 7979 7978 7980 3 1.58992 4.76976 0.00000 -6.35968 0.00000 0.00000
11184 7979 7978 7981 3 1.58992 4.76976 0.00000 -6.35968 0.00000 0.00000
11189 11190 11197 11198 3 30.28798 -4.81160 -25.47638 0.00000 0.00000 0.00000 ; imides
11189 11208 11209 11210 3 33.20422 0.00000 -33.20422 0.00000 0.00000 0.00000 ; methylguanidinium ion
11189 11208 11209 11215 3 20.50160 0.00000 -20.50160 0.00000 0.00000 0.00000 ; imides
11190 11189 11208 11207 3 30.28798 -4.81160 -25.47638 0.00000 0.00000 0.00000 ; imides
11190 11189 11208 11209 3 33.20422 0.00000 -33.20422 0.00000 0.00000 0.00000 ; methylguanidinium ion
11190 11197 11198 11199 3 33.20422 0.00000 -33.20422 0.00000 0.00000 0.00000 ; methylguanidinium ion
11190 11197 11198 11207 3 30.28798 -4.81160 -25.47638 0.00000 0.00000 0.00000 ; imides
11191 11190 11197 11198 3 33.20422 0.00000 -33.20422 0.00000 0.00000 0.00000 ; methylguanidinium ion
11192 10944 10943 10942 3 1.58992 4.76976 0.00000 -6.35968 0.00000 0.00000
11192 10944 10943 10945 3 1.58992 4.76976 0.00000 -6.35968 0.00000 0.00000
11192 10944 10943 10946 3 1.58992 4.76976 0.00000 -6.35968 0.00000 0.00000
11197 11190 11191 11192 3 33.20422 0.00000 -33.20422 0.00000 0.00000 0.00000 ; methylguanidinium ion
11197 11190 11191 11195 3 20.50160 0.00000 -20.50160 0.00000 0.00000 0.00000 ; imides
11197 11198 11207 11208 3 30.28798 -4.81160 -25.47638 0.00000 0.00000 0.00000 ; imides
11198 11207 11208 11189 3 30.28798 -4.81160 -25.47638 0.00000 0.00000 0.00000 ; imides
11198 11207 11208 11209 3 33.20422 0.00000 -33.20422 0.00000 0.00000 0.00000 ; methylguanidinium ion
11199 11198 11207 11208 3 33.20422 0.00000 -33.20422 0.00000 0.00000 0.00000 ; methylguanidinium ion
11207 11198 11199 11200 3 33.20422 0.00000 -33.20422 0.00000 0.00000 0.00000 ; methylguanidinium ion
11207 11198 11199 11205 3 20.50160 0.00000 -20.50160 0.00000 0.00000 0.00000 ; imides
11208 11189 11190 11191 3 33.20422 0.00000 -33.20422 0.00000 0.00000 0.00000 ; methylguanidinium ion
11208 11189 11190 11197 3 30.28798 -4.81160 -25.47638 0.00000 0.00000 0.00000 ; imides
11217 11218 11225 11226 3 30.28798 -4.81160 -25.47638 0.00000 0.00000 0.00000 ; imides
11217 11235 11236 11237 3 33.20422 0.00000 -33.20422 0.00000 0.00000 0.00000 ; methylguanidinium ion
11217 11235 11236 11242 3 20.50160 0.00000 -20.50160 0.00000 0.00000 0.00000 ; imides
11218 11217 11235 11234 3 30.28798 -4.81160 -25.47638 0.00000 0.00000 0.00000 ; imides
11218 11217 11235 11236 3 33.20422 0.00000 -33.20422 0.00000 0.00000 0.00000 ; methylguanidinium ion
11218 11225 11226 11227 3 33.20422 0.00000 -33.20422 0.00000 0.00000 0.00000 ; methylguanidinium ion
11218 11225 11226 11234 3 30.28798 -4.81160 -25.47638 0.00000 0.00000 0.00000 ; imides
11219 11218 11225 11226 3 33.20422 0.00000 -33.20422 0.00000 0.00000 0.00000 ; methylguanidinium ion
11220 2346 2345 2344 3 1.58992 4.76976 0.00000 -6.35968 0.00000 0.00000
11220 2346 2345 2347 3 1.58992 4.76976 0.00000 -6.35968 0.00000 0.00000
11220 2346 2345 2348 3 1.58992 4.76976 0.00000 -6.35968 0.00000 0.00000
11225 11218 11219 11220 3 33.20422 0.00000 -33.20422 0.00000 0.00000 0.00000 ; methylguanidinium ion
11225 11218 11219 11223 3 20.50160 0.00000 -20.50160 0.00000 0.00000 0.00000 ; imides
11225 11226 11234 11235 3 30.28798 -4.81160 -25.47638 0.00000 0.00000 0.00000 ; imides
11226 11234 11235 11217 3 30.28798 -4.81160 -25.47638 0.00000 0.00000 0.00000 ; imides
11226 11234 11235 11236 3 33.20422 0.00000 -33.20422 0.00000 0.00000 0.00000 ; methylguanidinium ion
11227 11226 11234 11235 3 33.20422 0.00000 -33.20422 0.00000 0.00000 0.00000 ; methylguanidinium ion
11228 11229 12658 12657 3 1.58992 4.76976 0.00000 -6.35968 0.00000 0.00000
11228 11229 12658 12659 3 1.58992 4.76976 0.00000 -6.35968 0.00000 0.00000
11228 11229 12658 12660 3 1.58992 4.76976 0.00000 -6.35968 0.00000 0.00000
11229 12658 12657 12656 3 1.78866 3.49154 0.53555 -5.81576 0.00000 0.00000
11229 12658 12657 12661 3 -1.26775 3.02085 1.74473 -3.49782 0.00000 0.00000
11234 11226 11227 11228 3 33.20422 0.00000 -33.20422 0.00000 0.00000 0.00000 ; methylguanidinium ion
11234 11226 11227 11232 3 20.50160 0.00000 -20.50160 0.00000 0.00000 0.00000 ; imides
11235 11217 11218 11219 3 33.20422 0.00000 -33.20422 0.00000 0.00000 0.00000 ; methylguanidinium ion
11235 11217 11218 11225 3 30.28798 -4.81160 -25.47638 0.00000 0.00000 0.00000 ; imides
11244 11245 11252 11253 3 30.28798 -4.81160 -25.47638 0.00000 0.00000 0.00000 ; imides
11244 11261 11262 11263 3 33.20422 0.00000 -33.20422 0.00000 0.00000 0.00000 ; methylguanidinium ion
11244 11261 11262 11266 3 20.50160 0.00000 -20.50160 0.00000 0.00000 0.00000 ; imides
11245 11244 11261 11260 3 30.28798 -4.81160 -25.47638 0.00000 0.00000 0.00000 ; imides
11245 11244 11261 11262 3 33.20422 0.00000 -33.20422 0.00000 0.00000 0.00000 ; methylguanidinium ion
11245 11252 11253 11254 3 33.20422 0.00000 -33.20422 0.00000 0.00000 0.00000 ; methylguanidinium ion
11245 11252 11253 11260 3 30.28798 -4.81160 -25.47638 0.00000 0.00000 0.00000 ; imides
11246 11245 11252 11253 3 33.20422 0.00000 -33.20422 0.00000 0.00000 0.00000 ; methylguanidinium ion
11247 9598 9597 9596 3 1.58992 4.76976 0.00000 -6.35968 0.00000 0.00000
11247 9598 9597 9599 3 1.58992 4.76976 0.00000 -6.35968 0.00000 0.00000
11247 9598 9597 9600 3 1.58992 4.76976 0.00000 -6.35968 0.00000 0.00000
11252 11245 11246 11247 3 33.20422 0.00000 -33.20422 0.00000 0.00000 0.00000 ; methylguanidinium ion
11252 11245 11246 11250 3 20.50160 0.00000 -20.50160 0.00000 0.00000 0.00000 ; imides
11252 11253 11260 11261 3 30.28798 -4.81160 -25.47638 0.00000 0.00000 0.00000 ; imides
11253 11260 11261 11244 3 30.28798 -4.81160 -25.47638 0.00000 0.00000 0.00000 ; imides
11253 11260 11261 11262 3 33.20422 0.00000 -33.20422 0.00000 0.00000 0.00000 ; methylguanidinium ion
11254 11253 11260 11261 3 33.20422 0.00000 -33.20422 0.00000 0.00000 0.00000 ; methylguanidinium ion
11255 7583 7582 7581 3 1.58992 4.76976 0.00000 -6.35968 0.00000 0.00000
11255 7583 7582 7584 3 1.58992 4.76976 0.00000 -6.35968 0.00000 0.00000
11255 7583 7582 7585 3 1.58992 4.76976 0.00000 -6.35968 0.00000 0.00000
11260 11253 11254 11255 3 33.20422 0.00000 -33.20422 0.00000 0.00000 0.00000 ; methylguanidinium ion
11260 11253 11254 11258 3 20.50160 0.00000 -20.50160 0.00000 0.00000 0.00000 ; imides
11261 11244 11245 11246 3 33.20422 0.00000 -33.20422 0.00000 0.00000 0.00000 ; methylguanidinium ion
11261 11244 11245 11252 3 30.28798 -4.81160 -25.47638 0.00000 0.00000 0.00000 ; imides
11263 7461 7460 7459 3 1.58992 4.76976 0.00000 -6.35968 0.00000 0.00000
11263 7461 7460 7462 3 1.58992 4.76976 0.00000 -6.35968 0.00000 0.00000
11263 7461 7460 7463 3 1.58992 4.76976 0.00000 -6.35968 0.00000 0.00000
11268 11269 11276 11277 3 30.28798 -4.81160 -25.47638 0.00000 0.00000 0.00000 ; imides
11268 11286 11287 11288 3 33.20422 0.00000 -33.20422 0.00000 0.00000 0.00000 ; methylguanidinium ion
11268 11286 11287 11291 3 20.50160 0.00000 -20.50160 0.00000 0.00000 0.00000 ; imides
11269 11268 11286 11285 3 30.28798 -4.81160 -25.47638 0.00000 0.00000 0.00000 ; imides
11269 11268 11286 11287 3 33.20422 0.00000 -33.20422 0.00000 0.00000 0.00000 ; methylguanidinium ion
11269 11276 11277 11278 3 33.20422 0.00000 -33.20422 0.00000 0.00000 0.00000 ; methylguanidinium ion
11269 11276 11277 11285 3 30.28798 -4.81160 -25.47638 0.00000 0.00000 0.00000 ; imides
11270 11269 11276 11277 3 33.20422 0.00000 -33.20422 0.00000 0.00000 0.00000 ; methylguanidinium ion
11271 1027 1026 1025 3 1.58992 4.76976 0.00000 -6.35968 0.00000 0.00000
11271 1027 1026 1028 3 1.58992 4.76976 0.00000 -6.35968 0.00000 0.00000
11271 1027 1026 1029 3 1.58992 4.76976 0.00000 -6.35968 0.00000 0.00000
11276 11269 11270 11271 3 33.20422 0.00000 -33.20422 0.00000 0.00000 0.00000 ; methylguanidinium ion
11276 11269 11270 11274 3 20.50160 0.00000 -20.50160 0.00000 0.00000 0.00000 ; imides
11276 11277 11285 11286 3 30.28798 -4.81160 -25.47638 0.00000 0.00000 0.00000 ; imides
11277 11285 11286 11268 3 30.28798 -4.81160 -25.47638 0.00000 0.00000 0.00000 ; imides
11277 11285 11286 11287 3 33.20422 0.00000 -33.20422 0.00000 0.00000 0.00000 ; methylguanidinium ion
11278 11277 11285 11286 3 33.20422 0.00000 -33.20422 0.00000 0.00000 0.00000 ; methylguanidinium ion
11279 11280 12428 12427 3 1.58992 4.76976 0.00000 -6.35968 0.00000 0.00000
11279 11280 12428 12429 3 1.58992 4.76976 0.00000 -6.35968 0.00000 0.00000
11279 11280 12428 12430 3 1.58992 4.76976 0.00000 -6.35968 0.00000 0.00000
11280 12428 12427 12426 3 1.78866 3.49154 0.53555 -5.81576 0.00000 0.00000
11280 12428 12427 12431 3 -1.26775 3.02085 1.74473 -3.49782 0.00000 0.00000
11285 11277 11278 11279 3 33.20422 0.00000 -33.20422 0.00000 0.00000 0.00000 ; methylguanidinium ion
11285 11277 11278 11283 3 20.50160 0.00000 -20.50160 0.00000 0.00000 0.00000 ; imides
11286 11268 11269 11270 3 33.20422 0.00000 -33.20422 0.00000 0.00000 0.00000 ; methylguanidinium ion
11286 11268 11269 11276 3 30.28798 -4.81160 -25.47638 0.00000 0.00000 0.00000 ; imides
11288 9862 9861 9860 3 1.58992 4.76976 0.00000 -6.35968 0.00000 0.00000
11288 9862 9861 9863 3 1.58992 4.76976 0.00000 -6.35968 0.00000 0.00000
11288 9862 9861 9864 3 1.58992 4.76976 0.00000 -6.35968 0.00000 0.00000
11293 11294 11301 11302 3 30.28798 -4.81160 -25.47638 0.00000 0.00000 0.00000 ; imides
11293 11310 11311 11312 3 33.20422 0.00000 -33.20422 0.00000 0.00000 0.00000 ; methylguanidinium ion
11293 11310 11311 11315 3 20.50160 0.00000 -20.50160 0.00000 0.00000 0.00000 ; imides
11294 11293 11310 11309 3 30.28798 -4.81160 -25.47638 0.00000 0.00000 0.00000 ; imides
11294 11293 11310 11311 3 33.20422 0.00000 -33.20422 0.00000 0.00000 0.00000 ; methylguanidinium ion
11294 11301 11302 11303 3 33.20422 0.00000 -33.20422 0.00000 0.00000 0.00000 ; methylguanidinium ion
11294 11301 11302 11309 3 30.28798 -4.81160 -25.47638 0.00000 0.00000 0.00000 ; imides
11295 11294 11301 11302 3 33.20422 0.00000 -33.20422 0.00000 0.00000 0.00000 ; methylguanidinium ion
11296 7126 7125 7124 3 1.58992 4.76976 0.00000 -6.35968 0.00000 0.00000
11296 7126 7125 7127 3 1.58992 4.76976 0.00000 -6.35968 0.00000 0.00000
11296 7126 7125 7128 3 1.58992 4.76976 0.00000 -6.35968 0.00000 0.00000
11301 11294 11295 11296 3 33.20422 0.00000 -33.20422 0.00000 0.00000 0.00000 ; methylguanidinium ion
11301 11294 11295 11299 3 20.50160 0.00000 -20.50160 0.00000 0.00000 0.00000 ; imides
11301 11302 11309 11310 3 30.28798 -4.81160 -25.47638 0.00000 0.00000 0.00000 ; imides
11302 11309 11310 11293 3 30.28798 -4.81160 -25.47638 0.00000 0.00000 0.00000 ; imides
11302 11309 11310 11311 3 33.20422 0.00000 -33.20422 0.00000 0.00000 0.00000 ; methylguanidinium ion
11303 11302 11309 11310 3 33.20422 0.00000 -33.20422 0.00000 0.00000 0.00000 ; methylguanidinium ion
11304 3762 3761 3760 3 1.58992 4.76976 0.00000 -6.35968 0.00000 0.00000
11304 3762 3761 3763 3 1.58992 4.76976 0.00000 -6.35968 0.00000 0.00000
11304 3762 3761 3764 3 1.58992 4.76976 0.00000 -6.35968 0.00000 0.00000
11309 11302 11303 11304 3 33.20422 0.00000 -33.20422 0.00000 0.00000 0.00000 ; methylguanidinium ion
11309 11302 11303 11307 3 20.50160 0.00000 -20.50160 0.00000 0.00000 0.00000 ; imides
11310 11293 11294 11295 3 33.20422 0.00000 -33.20422 0.00000 0.00000 0.00000 ; methylguanidinium ion
11310 11293 11294 11301 3 30.28798 -4.81160 -25.47638 0.00000 0.00000 0.00000 ; imides
11312 8033 8032 8031 3 1.58992 4.76976 0.00000 -6.35968 0.00000 0.00000
11312 8033 8032 8034 3 1.58992 4.76976 0.00000 -6.35968 0.00000 0.00000
11312 8033 8032 8035 3 1.58992 4.76976 0.00000 -6.35968 0.00000 0.00000
11317 11318 11325 11326 3 30.28798 -4.81160 -25.47638 0.00000 0.00000 0.00000 ; imides
11317 11334 11335 11336 3 33.20422 0.00000 -33.20422 0.00000 0.00000 0.00000 ; methylguanidinium ion
11317 11334 11335 11339 3 20.50160 0.00000 -20.50160 0.00000 0.00000 0.00000 ; imides
11318 11317 11334 11333 3 30.28798 -4.81160 -25.47638 0.00000 0.00000 0.00000 ; imides
11318 11317 11334 11335 3 33.20422 0.00000 -33.20422 0.00000 0.00000 0.00000 ; methylguanidinium ion
11318 11325 11326 11327 3 33.20422 0.00000 -33.20422 0.00000 0.00000 0.00000 ; methylguanidinium ion
11318 11325 11326 11333 3 30.28798 -4.81160 -25.47638 0.00000 0.00000 0.00000 ; imides
11319 11318 11325 11326 3 33.20422 0.00000 -33.20422 0.00000 0.00000 0.00000 ; methylguanidinium ion
11320 6398 6397 6396 3 1.58992 4.76976 0.00000 -6.35968 0.00000 0.00000
11320 6398 6397 6399 3 1.58992 4.76976 0.00000 -6.35968 0.00000 0.00000
11320 6398 6397 6400 3 1.58992 4.76976 0.00000 -6.35968 0.00000 0.00000
11325 11318 11319 11320 3 33.20422 0.00000 -33.20422 0.00000 0.00000 0.00000 ; methylguanidinium ion
11325 11318 11319 11323 3 20.50160 0.00000 -20.50160 0.00000 0.00000 0.00000 ; imides
11325 11326 11333 11334 3 30.28798 -4.81160 -25.47638 0.00000 0.00000 0.00000 ; imides
11326 11333 11334 11317 3 30.28798 -4.81160 -25.47638 0.00000 0.00000 0.00000 ; imides
11326 11333 11334 11335 3 33.20422 0.00000 -33.20422 0.00000 0.00000 0.00000 ; methylguanidinium ion
11327 11326 11333 11334 3 33.20422 0.00000 -33.20422 0.00000 0.00000 0.00000 ; methylguanidinium ion
11328 9351 9350 9349 3 1.58992 4.76976 0.00000 -6.35968 0.00000 0.00000
11328 9351 9350 9352 3 1.58992 4.76976 0.00000 -6.35968 0.00000 0.00000
11328 9351 9350 9353 3 1.58992 4.76976 0.00000 -6.35968 0.00000 0.00000
11333 11326 11327 11328 3 33.20422 0.00000 -33.20422 0.00000 0.00000 0.00000 ; methylguanidinium ion
11333 11326 11327 11331 3 20.50160 0.00000 -20.50160 0.00000 0.00000 0.00000 ; imides
11334 11317 11318 11319 3 33.20422 0.00000 -33.20422 0.00000 0.00000 0.00000 ; methylguanidinium ion
11334 11317 11318 11325 3 30.28798 -4.81160 -25.47638 0.00000 0.00000 0.00000 ; imides
11336 5485 5484 5483 3 1.58992 4.76976 0.00000 -6.35968 0.00000 0.00000
11336 5485 5484 5486 3 1.58992 4.76976 0.00000 -6.35968 0.00000 0.00000
11336 5485 5484 5487 3 1.58992 4.76976 0.00000 -6.35968 0.00000 0.00000
11341 11342 11349 11350 3 30.28798 -4.81160 -25.47638 0.00000 0.00000 0.00000 ; imides
11341 11358 11359 11360 3 33.20422 0.00000 -33.20422 0.00000 0.00000 0.00000 ; methylguanidinium ion
11341 11358 11359 11363 3 20.50160 0.00000 -20.50160 0.00000 0.00000 0.00000 ; imides
11342 11341 11358 11357 3 30.28798 -4.81160 -25.47638 0.00000 0.00000 0.00000 ; imides
11342 11341 11358 11359 3 33.20422 0.00000 -33.20422 0.00000 0.00000 0.00000 ; methylguanidinium ion
11342 11349 11350 11351 3 33.20422 0.00000 -33.20422 0.00000 0.00000 0.00000 ; methylguanidinium ion
11342 11349 11350 11357 3 30.28798 -4.81160 -25.47638 0.00000 0.00000 0.00000 ; imides
11343 11342 11349 11350 3 33.20422 0.00000 -33.20422 0.00000 0.00000 0.00000 ; methylguanidinium ion
11344 5441 5440 5439 3 1.58992 4.76976 0.00000 -6.35968 0.00000 0.00000
11344 5441 5440 5442 3 1.58992 4.76976 0.00000 -6.35968 0.00000 0.00000
11344 5441 5440 5443 3 1.58992 4.76976 0.00000 -6.35968 0.00000 0.00000
11349 11342 11343 11344 3 33.20422 0.00000 -33.20422 0.00000 0.00000 0.00000 ; methylguanidinium ion
11349 11342 11343 11347 3 20.50160 0.00000 -20.50160 0.00000 0.00000 0.00000 ; imides
11349 11350 11357 11358 3 30.28798 -4.81160 -25.47638 0.00000 0.00000 0.00000 ; imides
11350 11357 11358 11341 3 30.28798 -4.81160 -25.47638 0.00000 0.00000 0.00000 ; imides
11350 11357 11358 11359 3 33.20422 0.00000 -33.20422 0.00000 0.00000 0.00000 ; methylguanidinium ion
11351 11350 11357 11358 3 33.20422 0.00000 -33.20422 0.00000 0.00000 0.00000 ; methylguanidinium ion
11352 4701 4700 4699 3 1.58992 4.76976 0.00000 -6.35968 0.00000 0.00000
11352 4701 4700 4702 3 1.58992 4.76976 0.00000 -6.35968 0.00000 0.00000
11352 4701 4700 4703 3 1.58992 4.76976 0.00000 -6.35968 0.00000 0.00000
11357 11350 11351 11352 3 33.20422 0.00000 -33.20422 0.00000 0.00000 0.00000 ; methylguanidinium ion
11357 11350 11351 11355 3 20.50160 0.00000 -20.50160 0.00000 0.00000 0.00000 ; imides
11358 11341 11342 11343 3 33.20422 0.00000 -33.20422 0.00000 0.00000 0.00000 ; methylguanidinium ion
11358 11341 11342 11349 3 30.28798 -4.81160 -25.47638 0.00000 0.00000 0.00000 ; imides
11360 5764 5763 5762 3 1.58992 4.76976 0.00000 -6.35968 0.00000 0.00000
11360 5764 5763 5765 3 1.58992 4.76976 0.00000 -6.35968 0.00000 0.00000
11360 5764 5763 5766 3 1.58992 4.76976 0.00000 -6.35968 0.00000 0.00000
11365 11366 11373 11374 3 30.28798 -4.81160 -25.47638 0.00000 0.00000 0.00000 ; imides
11365 11382 11383 11384 3 33.20422 0.00000 -33.20422 0.00000 0.00000 0.00000 ; methylguanidinium ion
11365 11382 11383 11387 3 20.50160 0.00000 -20.50160 0.00000 0.00000 0.00000 ; imides
11366 11365 11382 11381 3 30.28798 -4.81160 -25.47638 0.00000 0.00000 0.00000 ; imides
11366 11365 11382 11383 3 33.20422 0.00000 -33.20422 0.00000 0.00000 0.00000 ; methylguanidinium ion
11366 11373 11374 11375 3 33.20422 0.00000 -33.20422 0.00000 0.00000 0.00000 ; methylguanidinium ion
11366 11373 11374 11381 3 30.28798 -4.81160 -25.47638 0.00000 0.00000 0.00000 ; imides
11367 11366 11373 11374 3 33.20422 0.00000 -33.20422 0.00000 0.00000 0.00000 ; methylguanidinium ion
11368 10004 10003 10002 3 1.58992 4.76976 0.00000 -6.35968 0.00000 0.00000
11368 10004 10003 10005 3 1.58992 4.76976 0.00000 -6.35968 0.00000 0.00000
11368 10004 10003 10006 3 1.58992 4.76976 0.00000 -6.35968 0.00000 0.00000
11373 11366 11367 11368 3 33.20422 0.00000 -33.20422 0.00000 0.00000 0.00000 ; methylguanidinium ion
11373 11366 11367 11371 3 20.50160 0.00000 -20.50160 0.00000 0.00000 0.00000 ; imides
11373 11374 11381 11382 3 30.28798 -4.81160 -25.47638 0.00000 0.00000 0.00000 ; imides
11374 11381 11382 11365 3 30.28798 -4.81160 -25.47638 0.00000 0.00000 0.00000 ; imides
11374 11381 11382 11383 3 33.20422 0.00000 -33.20422 0.00000 0.00000 0.00000 ; methylguanidinium ion
11375 11374 11381 11382 3 33.20422 0.00000 -33.20422 0.00000 0.00000 0.00000 ; methylguanidinium ion
11376 1315 1314 1313 3 1.58992 4.76976 0.00000 -6.35968 0.00000 0.00000
11376 1315 1314 1316 3 1.58992 4.76976 0.00000 -6.35968 0.00000 0.00000
11376 1315 1314 1317 3 1.58992 4.76976 0.00000 -6.35968 0.00000 0.00000
11381 11374 11375 11376 3 33.20422 0.00000 -33.20422 0.00000 0.00000 0.00000 ; methylguanidinium ion
11381 11374 11375 11379 3 20.50160 0.00000 -20.50160 0.00000 0.00000 0.00000 ; imides
11382 11365 11366 11367 3 33.20422 0.00000 -33.20422 0.00000 0.00000 0.00000 ; methylguanidinium ion
11382 11365 11366 11373 3 30.28798 -4.81160 -25.47638 0.00000 0.00000 0.00000 ; imides
11384 3401 3400 3399 3 1.58992 4.76976 0.00000 -6.35968 0.00000 0.00000
11384 3401 3400 3402 3 1.58992 4.76976 0.00000 -6.35968 0.00000 0.00000
11384 3401 3400 3403 3 1.58992 4.76976 0.00000 -6.35968 0.00000 0.00000
11389 11390 11397 11398 3 30.28798 -4.81160 -25.47638 0.00000 0.00000 0.00000 ; imides
11389 11407 11408 11409 3 33.20422 0.00000 -33.20422 0.00000 0.00000 0.00000 ; methylguanidinium ion
11389 11407 11408 11412 3 20.50160 0.00000 -20.50160 0.00000 0.00000 0.00000 ; imides
11390 11389 11407 11406 3 30.28798 -4.81160 -25.47638 0.00000 0.00000 0.00000 ; imides
11390 11389 11407 11408 3 33.20422 0.00000 -33.20422 0.00000 0.00000 0.00000 ; methylguanidinium ion
11390 11397 11398 11399 3 33.20422 0.00000 -33.20422 0.00000 0.00000 0.00000 ; methylguanidinium ion
11390 11397 11398 11406 3 30.28798 -4.81160 -25.47638 0.00000 0.00000 0.00000 ; imides
11391 11390 11397 11398 3 33.20422 0.00000 -33.20422 0.00000 0.00000 0.00000 ; methylguanidinium ion
11392 3859 3858 3857 3 1.58992 4.76976 0.00000 -6.35968 0.00000 0.00000
11392 3859 3858 3860 3 1.58992 4.76976 0.00000 -6.35968 0.00000 0.00000
11392 3859 3858 3861 3 1.58992 4.76976 0.00000 -6.35968 0.00000 0.00000
11397 11390 11391 11392 3 33.20422 0.00000 -33.20422 0.00000 0.00000 0.00000 ; methylguanidinium ion
11397 11390 11391 11395 3 20.50160 0.00000 -20.50160 0.00000 0.00000 0.00000 ; imides
11397 11398 11406 11407 3 30.28798 -4.81160 -25.47638 0.00000 0.00000 0.00000 ; imides
11398 11406 11407 11389 3 30.28798 -4.81160 -25.47638 0.00000 0.00000 0.00000 ; imides
11398 11406 11407 11408 3 33.20422 0.00000 -33.20422 0.00000 0.00000 0.00000 ; methylguanidinium ion
11399 11398 11406 11407 3 33.20422 0.00000 -33.20422 0.00000 0.00000 0.00000 ; methylguanidinium ion
11400 11401 11841 11840 3 1.58992 4.76976 0.00000 -6.35968 0.00000 0.00000
11400 11401 11841 11842 3 1.58992 4.76976 0.00000 -6.35968 0.00000 0.00000
11400 11401 11841 11843 3 1.58992 4.76976 0.00000 -6.35968 0.00000 0.00000
11401 11841 11840 11839 3 1.78866 3.49154 0.53555 -5.81576 0.00000 0.00000
11401 11841 11840 11844 3 -1.26775 3.02085 1.74473 -3.49782 0.00000 0.00000
11406 11398 11399 11400 3 33.20422 0.00000 -33.20422 0.00000 0.00000 0.00000 ; methylguanidinium ion
11406 11398 11399 11404 3 20.50160 0.00000 -20.50160 0.00000 0.00000 0.00000 ; imides
11407 11389 11390 11391 3 33.20422 0.00000 -33.20422 0.00000 0.00000 0.00000 ; methylguanidinium ion
11407 11389 11390 11397 3 30.28798 -4.81160 -25.47638 0.00000 0.00000 0.00000 ; imides
11409 10728 10727 10726 3 1.58992 4.76976 0.00000 -6.35968 0.00000 0.00000
11409 10728 10727 10729 3 1.58992 4.76976 0.00000 -6.35968 0.00000 0.00000
11409 10728 10727 10730 3 1.58992 4.76976 0.00000 -6.35968 0.00000 0.00000
11414 11415 11422 11423 3 30.28798 -4.81160 -25.47638 0.00000 0.00000 0.00000 ; imides
11414 11431 11432 11433 3 33.20422 0.00000 -33.20422 0.00000 0.00000 0.00000 ; methylguanidinium ion
11414 11431 11432 11436 3 20.50160 0.00000 -20.50160 0.00000 0.00000 0.00000 ; imides
11415 11414 11431 11430 3 30.28798 -4.81160 -25.47638 0.00000 0.00000 0.00000 ; imides
11415 11414 11431 11432 3 33.20422 0.00000 -33.20422 0.00000 0.00000 0.00000 ; methylguanidinium ion
11415 11422 11423 11424 3 33.20422 0.00000 -33.20422 0.00000 0.00000 0.00000 ; methylguanidinium ion
11415 11422 11423 11430 3 30.28798 -4.81160 -25.47638 0.00000 0.00000 0.00000 ; imides
11416 11415 11422 11423 3 33.20422 0.00000 -33.20422 0.00000 0.00000 0.00000 ; methylguanidinium ion
11417 6101 6100 6099 3 1.58992 4.76976 0.00000 -6.35968 0.00000 0.00000
11417 6101 6100 6102 3 1.58992 4.76976 0.00000 -6.35968 0.00000 0.00000
11417 6101 6100 6103 3 1.58992 4.76976 0.00000 -6.35968 0.00000 0.00000
11422 11415 11416 11417 3 33.20422 0.00000 -33.20422 0.00000 0.00000 0.00000 ; methylguanidinium ion
11422 11415 11416 11420 3 20.50160 0.00000 -20.50160 0.00000 0.00000 0.00000 ; imides
11422 11423 11430 11431 3 30.28798 -4.81160 -25.47638 0.00000 0.00000 0.00000 ; imides
11423 11430 11431 11414 3 30.28798 -4.81160 -25.47638 0.00000 0.00000 0.00000 ; imides
11423 11430 11431 11432 3 33.20422 0.00000 -33.20422 0.00000 0.00000 0.00000 ; methylguanidinium ion
11424 11423 11430 11431 3 33.20422 0.00000 -33.20422 0.00000 0.00000 0.00000 ; methylguanidinium ion
11425 636 635 634 3 1.58992 4.76976 0.00000 -6.35968 0.00000 0.00000
11425 636 635 637 3 1.58992 4.76976 0.00000 -6.35968 0.00000 0.00000
11425 636 635 638 3 1.58992 4.76976 0.00000 -6.35968 0.00000 0.00000
11430 11423 11424 11425 3 33.20422 0.00000 -33.20422 0.00000 0.00000 0.00000 ; methylguanidinium ion
11430 11423 11424 11428 3 20.50160 0.00000 -20.50160 0.00000 0.00000 0.00000 ; imides
11431 11414 11415 11416 3 33.20422 0.00000 -33.20422 0.00000 0.00000 0.00000 ; methylguanidinium ion
11431 11414 11415 11422 3 30.28798 -4.81160 -25.47638 0.00000 0.00000 0.00000 ; imides
11433 6345 6344 6343 3 1.58992 4.76976 0.00000 -6.35968 0.00000 0.00000
11433 6345 6344 6346 3 1.58992 4.76976 0.00000 -6.35968 0.00000 0.00000
11433 6345 6344 6347 3 1.58992 4.76976 0.00000 -6.35968 0.00000 0.00000
11438 11439 11446 11447 3 30.28798 -4.81160 -25.47638 0.00000 0.00000 0.00000 ; imides
11438 11455 11456 11457 3 33.20422 0.00000 -33.20422 0.00000 0.00000 0.00000 ; methylguanidinium ion
11438 11455 11456 11460 3 20.50160 0.00000 -20.50160 0.00000 0.00000 0.00000 ; imides
11439 11438 11455 11454 3 30.28798 -4.81160 -25.47638 0.00000 0.00000 0.00000 ; imides
11439 11438 11455 11456 3 33.20422 0.00000 -33.20422 0.00000 0.00000 0.00000 ; methylguanidinium ion
11439 11446 11447 11448 3 33.20422 0.00000 -33.20422 0.00000 0.00000 0.00000 ; methylguanidinium ion
11439 11446 11447 11454 3 30.28798 -4.81160 -25.47638 0.00000 0.00000 0.00000 ; imides
11440 11439 11446 11447 3 33.20422 0.00000 -33.20422 0.00000 0.00000 0.00000 ; methylguanidinium ion
11441 8820 8819 8818 3 1.58992 4.76976 0.00000 -6.35968 0.00000 0.00000
11441 8820 8819 8821 3 1.58992 4.76976 0.00000 -6.35968 0.00000 0.00000
11441 8820 8819 8822 3 1.58992 4.76976 0.00000 -6.35968 0.00000 0.00000
11446 11439 11440 11441 3 33.20422 0.00000 -33.20422 0.00000 0.00000 0.00000 ; methylguanidinium ion
11446 11439 11440 11444 3 20.50160 0.00000 -20.50160 0.00000 0.00000 0.00000 ; imides
11446 11447 11454 11455 3 30.28798 -4.81160 -25.47638 0.00000 0.00000 0.00000 ; imides
11447 11454 11455 11438 3 30.28798 -4.81160 -25.47638 0.00000 0.00000 0.00000 ; imides
11447 11454 11455 11456 3 33.20422 0.00000 -33.20422 0.00000 0.00000 0.00000 ; methylguanidinium ion
11448 11447 11454 11455 3 33.20422 0.00000 -33.20422 0.00000 0.00000 0.00000 ; methylguanidinium ion
11449 4603 4602 4601 3 1.58992 4.76976 0.00000 -6.35968 0.00000 0.00000
11449 4603 4602 4604 3 1.58992 4.76976 0.00000 -6.35968 0.00000 0.00000
11449 4603 4602 4605 3 1.58992 4.76976 0.00000 -6.35968 0.00000 0.00000
11454 11447 11448 11449 3 33.20422 0.00000 -33.20422 0.00000 0.00000 0.00000 ; methylguanidinium ion
11454 11447 11448 11452 3 20.50160 0.00000 -20.50160 0.00000 0.00000 0.00000 ; imides
11455 11438 11439 11440 3 33.20422 0.00000 -33.20422 0.00000 0.00000 0.00000 ; methylguanidinium ion
11455 11438 11439 11446 3 30.28798 -4.81160 -25.47638 0.00000 0.00000 0.00000 ; imides
11457 6083 6082 6081 3 1.58992 4.76976 0.00000 -6.35968 0.00000 0.00000
11457 6083 6082 6084 3 1.58992 4.76976 0.00000 -6.35968 0.00000 0.00000
11457 6083 6082 6085 3 1.58992 4.76976 0.00000 -6.35968 0.00000 0.00000
11462 11463 11470 11471 3 30.28798 -4.81160 -25.47638 0.00000 0.00000 0.00000 ; imides
11462 11481 11482 11483 3 33.20422 0.00000 -33.20422 0.00000 0.00000 0.00000 ; methylguanidinium ion
11462 11481 11482 11486 3 20.50160 0.00000 -20.50160 0.00000 0.00000 0.00000 ; imides
11463 11462 11481 11480 3 30.28798 -4.81160 -25.47638 0.00000 0.00000 0.00000 ; imides
11463 11462 11481 11482 3 33.20422 0.00000 -33.20422 0.00000 0.00000 0.00000 ; methylguanidinium ion
11463 11470 11471 11472 3 33.20422 0.00000 -33.20422 0.00000 0.00000 0.00000 ; methylguanidinium ion
11463 11470 11471 11480 3 30.28798 -4.81160 -25.47638 0.00000 0.00000 0.00000 ; imides
11464 11463 11470 11471 3 33.20422 0.00000 -33.20422 0.00000 0.00000 0.00000 ; methylguanidinium ion
11465 6721 6720 6719 3 1.58992 4.76976 0.00000 -6.35968 0.00000 0.00000
11465 6721 6720 6722 3 1.58992 4.76976 0.00000 -6.35968 0.00000 0.00000
11465 6721 6720 6723 3 1.58992 4.76976 0.00000 -6.35968 0.00000 0.00000
11470 11463 11464 11465 3 33.20422 0.00000 -33.20422 0.00000 0.00000 0.00000 ; methylguanidinium ion
11470 11463 11464 11468 3 20.50160 0.00000 -20.50160 0.00000 0.00000 0.00000 ; imides
11470 11471 11480 11481 3 30.28798 -4.81160 -25.47638 0.00000 0.00000 0.00000 ; imides
11471 11480 11481 11462 3 30.28798 -4.81160 -25.47638 0.00000 0.00000 0.00000 ; imides
11471 11480 11481 11482 3 33.20422 0.00000 -33.20422 0.00000 0.00000 0.00000 ; methylguanidinium ion
11472 11471 11480 11481 3 33.20422 0.00000 -33.20422 0.00000 0.00000 0.00000 ; methylguanidinium ion
11480 11471 11472 11473 3 33.20422 0.00000 -33.20422 0.00000 0.00000 0.00000 ; methylguanidinium ion
11480 11471 11472 11478 3 20.50160 0.00000 -20.50160 0.00000 0.00000 0.00000 ; imides
11481 11462 11463 11464 3 33.20422 0.00000 -33.20422 0.00000 0.00000 0.00000 ; methylguanidinium ion
11481 11462 11463 11470 3 30.28798 -4.81160 -25.47638 0.00000 0.00000 0.00000 ; imides
11483 10695 10694 10693 3 1.58992 4.76976 0.00000 -6.35968 0.00000 0.00000
11483 10695 10694 10696 3 1.58992 4.76976 0.00000 -6.35968 0.00000 0.00000
11483 10695 10694 10697 3 1.58992 4.76976 0.00000 -6.35968 0.00000 0.00000
11488 11489 11496 11497 3 30.28798 -4.81160 -25.47638 0.00000 0.00000 0.00000 ; imides
11488 11505 11506 11507 3 33.20422 0.00000 -33.20422 0.00000 0.00000 0.00000 ; methylguanidinium ion
11488 11505 11506 11510 3 20.50160 0.00000 -20.50160 0.00000 0.00000 0.00000 ; imides
11489 11488 11505 11504 3 30.28798 -4.81160 -25.47638 0.00000 0.00000 0.00000 ; imides
11489 11488 11505 11506 3 33.20422 0.00000 -33.20422 0.00000 0.00000 0.00000 ; methylguanidinium ion
11489 11496 11497 11498 3 33.20422 0.00000 -33.20422 0.00000 0.00000 0.00000 ; methylguanidinium ion
11489 11496 11497 11504 3 30.28798 -4.81160 -25.47638 0.00000 0.00000 0.00000 ; imides
11490 11489 11496 11497 3 33.20422 0.00000 -33.20422 0.00000 0.00000 0.00000 ; methylguanidinium ion
11491 4782 4781 4780 3 1.58992 4.76976 0.00000 -6.35968 0.00000 0.00000
11491 4782 4781 4783 3 1.58992 4.76976 0.00000 -6.35968 0.00000 0.00000
11491 4782 4781 4784 3 1.58992 4.76976 0.00000 -6.35968 0.00000 0.00000
11496 11489 11490 11491 3 33.20422 0.00000 -33.20422 0.00000 0.00000 0.00000 ; methylguanidinium ion
11496 11489 11490 11494 3 20.50160 0.00000 -20.50160 0.00000 0.00000 0.00000 ; imides
11496 11497 11504 11505 3 30.28798 -4.81160 -25.47638 0.00000 0.00000 0.00000 ; imides
11497 11504 11505 11488 3 30.28798 -4.81160 -25.47638 0.00000 0.00000 0.00000 ; imides
11497 11504 11505 11506 3 33.20422 0.00000 -33.20422 0.00000 0.00000 0.00000 ; methylguanidinium ion
11498 11497 11504 11505 3 33.20422 0.00000 -33.20422 0.00000 0.00000 0.00000 ; methylguanidinium ion
11499 7280 7279 7278 3 1.58992 4.76976 0.00000 -6.35968 0.00000 0.00000
11499 7280 7279 7281 3 1.58992 4.76976 0.00000 -6.35968 0.00000 0.00000
11499 7280 7279 7282 3 1.58992 4.76976 0.00000 -6.35968 0.00000 0.00000
11504 11497 11498 11499 3 33.20422 0.00000 -33.20422 0.00000 0.00000 0.00000 ; methylguanidinium ion
11504 11497 11498 11502 3 20.50160 0.00000 -20.50160 0.00000 0.00000 0.00000 ; imides
11505 11488 11489 11490 3 33.20422 0.00000 -33.20422 0.00000 0.00000 0.00000 ; methylguanidinium ion
11505 11488 11489 11496 3 30.28798 -4.81160 -25.47638 0.00000 0.00000 0.00000 ; imides
11507 491 490 489 3 1.58992 4.76976 0.00000 -6.35968 0.00000 0.00000
11507 491 490 492 3 1.58992 4.76976 0.00000 -6.35968 0.00000 0.00000
11507 491 490 493 3 1.58992 4.76976 0.00000 -6.35968 0.00000 0.00000
11512 11513 11520 11521 3 30.28798 -4.81160 -25.47638 0.00000 0.00000 0.00000 ; imides
11512 11531 11532 11533 3 33.20422 0.00000 -33.20422 0.00000 0.00000 0.00000 ; methylguanidinium ion
11512 11531 11532 11538 3 20.50160 0.00000 -20.50160 0.00000 0.00000 0.00000 ; imides
11513 11512 11531 11530 3 30.28798 -4.81160 -25.47638 0.00000 0.00000 0.00000 ; imides
11513 11512 11531 11532 3 33.20422 0.00000 -33.20422 0.00000 0.00000 0.00000 ; methylguanidinium ion
11513 11520 11521 11522 3 33.20422 0.00000 -33.20422 0.00000 0.00000 0.00000 ; methylguanidinium ion
11513 11520 11521 11530 3 30.28798 -4.81160 -25.47638 0.00000 0.00000 0.00000 ; imides
11514 11513 11520 11521 3 33.20422 0.00000 -33.20422 0.00000 0.00000 0.00000 ; methylguanidinium ion
11515 9386 9385 9384 3 1.58992 4.76976 0.00000 -6.35968 0.00000 0.00000
11515 9386 9385 9387 3 1.58992 4.76976 0.00000 -6.35968 0.00000 0.00000
11515 9386 9385 9388 3 1.58992 4.76976 0.00000 -6.35968 0.00000 0.00000
11520 11513 11514 11515 3 33.20422 0.00000 -33.20422 0.00000 0.00000 0.00000 ; methylguanidinium ion
11520 11513 11514 11518 3 20.50160 0.00000 -20.50160 0.00000 0.00000 0.00000 ; imides
11520 11521 11530 11531 3 30.28798 -4.81160 -25.47638 0.00000 0.00000 0.00000 ; imides
11521 11530 11531 11512 3 30.28798 -4.81160 -25.47638 0.00000 0.00000 0.00000 ; imides
11521 11530 11531 11532 3 33.20422 0.00000 -33.20422 0.00000 0.00000 0.00000 ; methylguanidinium ion
11522 11521 11530 11531 3 33.20422 0.00000 -33.20422 0.00000 0.00000 0.00000 ; methylguanidinium ion
11530 11521 11522 11523 3 33.20422 0.00000 -33.20422 0.00000 0.00000 0.00000 ; methylguanidinium ion
11530 11521 11522 11528 3 20.50160 0.00000 -20.50160 0.00000 0.00000 0.00000 ; imides
11531 11512 11513 11514 3 33.20422 0.00000 -33.20422 0.00000 0.00000 0.00000 ; methylguanidinium ion
11531 11512 11513 11520 3 30.28798 -4.81160 -25.47638 0.00000 0.00000 0.00000 ; imides
11540 11541 11548 11549 3 30.28798 -4.81160 -25.47638 0.00000 0.00000 0.00000 ; imides
11540 11557 11558 11559 3 33.20422 0.00000 -33.20422 0.00000 0.00000 0.00000 ; methylguanidinium ion
11540 11557 11558 11563 3 20.50160 0.00000 -20.50160 0.00000 0.00000 0.00000 ; imides
11541 11540 11557 11556 3 30.28798 -4.81160 -25.47638 0.00000 0.00000 0.00000 ; imides
11541 11540 11557 11558 3 33.20422 0.00000 -33.20422 0.00000 0.00000 0.00000 ; methylguanidinium ion
11541 11548 11549 11550 3 33.20422 0.00000 -33.20422 0.00000 0.00000 0.00000 ; methylguanidinium ion
11541 11548 11549 11556 3 30.28798 -4.81160 -25.47638 0.00000 0.00000 0.00000 ; imides
11542 11541 11548 11549 3 33.20422 0.00000 -33.20422 0.00000 0.00000 0.00000 ; methylguanidinium ion
11543 4675 4674 4673 3 1.58992 4.76976 0.00000 -6.35968 0.00000 0.00000
11543 4675 4674 4676 3 1.58992 4.76976 0.00000 -6.35968 0.00000 0.00000
11543 4675 4674 4677 3 1.58992 4.76976 0.00000 -6.35968 0.00000 0.00000
11548 11541 11542 11543 3 33.20422 0.00000 -33.20422 0.00000 0.00000 0.00000 ; methylguanidinium ion
11548 11541 11542 11546 3 20.50160 0.00000 -20.50160 0.00000 0.00000 0.00000 ; imides
11548 11549 11556 11557 3 30.28798 -4.81160 -25.47638 0.00000 0.00000 0.00000 ; imides
11549 11556 11557 11540 3 30.28798 -4.81160 -25.47638 0.00000 0.00000 0.00000 ; imides
11549 11556 11557 11558 3 33.20422 0.00000 -33.20422 0.00000 0.00000 0.00000 ; methylguanidinium ion
11550 11549 11556 11557 3 33.20422 0.00000 -33.20422 0.00000 0.00000 0.00000 ; methylguanidinium ion
11551 5107 5106 5105 3 1.58992 4.76976 0.00000 -6.35968 0.00000 0.00000
11551 5107 5106 5108 3 1.58992 4.76976 0.00000 -6.35968 0.00000 0.00000
11551 5107 5106 5109 3 1.58992 4.76976 0.00000 -6.35968 0.00000 0.00000
11556 11549 11550 11551 3 33.20422 0.00000 -33.20422 0.00000 0.00000 0.00000 ; methylguanidinium ion
11556 11549 11550 11554 3 20.50160 0.00000 -20.50160 0.00000 0.00000 0.00000 ; imides
11557 11540 11541 11542 3 33.20422 0.00000 -33.20422 0.00000 0.00000 0.00000 ; methylguanidinium ion
11557 11540 11541 11548 3 30.28798 -4.81160 -25.47638 0.00000 0.00000 0.00000 ; imides
11559 11560 12258 12257 3 1.58992 4.76976 0.00000 -6.35968 0.00000 0.00000
11559 11560 12258 12259 3 1.58992 4.76976 0.00000 -6.35968 0.00000 0.00000
11559 11560 12258 12260 3 1.58992 4.76976 0.00000 -6.35968 0.00000 0.00000
11560 12258 12257 12256 3 1.78866 3.49154 0.53555 -5.81576 0.00000 0.00000
11560 12258 12257 12261 3 -1.26775 3.02085 1.74473 -3.49782 0.00000 0.00000
11565 11566 11573 11574 3 30.28798 -4.81160 -25.47638 0.00000 0.00000 0.00000 ; imides
11565 11582 11583 11584 3 33.20422 0.00000 -33.20422 0.00000 0.00000 0.00000 ; methylguanidinium ion
11565 11582 11583 11587 3 20.50160 0.00000 -20.50160 0.00000 0.00000 0.00000 ; imides
11566 11565 11582 11581 3 30.28798 -4.81160 -25.47638 0.00000 0.00000 0.00000 ; imides
11566 11565 11582 11583 3 33.20422 0.00000 -33.20422 0.00000 0.00000 0.00000 ; methylguanidinium ion
11566 11573 11574 11575 3 33.20422 0.00000 -33.20422 0.00000 0.00000 0.00000 ; methylguanidinium ion
11566 11573 11574 11581 3 30.28798 -4.81160 -25.47638 0.00000 0.00000 0.00000 ; imides
11567 11566 11573 11574 3 33.20422 0.00000 -33.20422 0.00000 0.00000 0.00000 ; methylguanidinium ion
11568 8042 8041 8040 3 1.58992 4.76976 0.00000 -6.35968 0.00000 0.00000
11568 8042 8041 8043 3 1.58992 4.76976 0.00000 -6.35968 0.00000 0.00000
11568 8042 8041 8044 3 1.58992 4.76976 0.00000 -6.35968 0.00000 0.00000
11573 11566 11567 11568 3 33.20422 0.00000 -33.20422 0.00000 0.00000 0.00000 ; methylguanidinium ion
11573 11566 11567 11571 3 20.50160 0.00000 -20.50160 0.00000 0.00000 0.00000 ; imides
11573 11574 11581 11582 3 30.28798 -4.81160 -25.47638 0.00000 0.00000 0.00000 ; imides
11574 11581 11582 11565 3 30.28798 -4.81160 -25.47638 0.00000 0.00000 0.00000 ; imides
11574 11581 11582 11583 3 33.20422 0.00000 -33.20422 0.00000 0.00000 0.00000 ; methylguanidinium ion
11575 11574 11581 11582 3 33.20422 0.00000 -33.20422 0.00000 0.00000 0.00000 ; methylguanidinium ion
11576 8769 8768 8767 3 1.58992 4.76976 0.00000 -6.35968 0.00000 0.00000
11576 8769 8768 8770 3 1.58992 4.76976 0.00000 -6.35968 0.00000 0.00000
11576 8769 8768 8771 3 1.58992 4.76976 0.00000 -6.35968 0.00000 0.00000
11581 11574 11575 11576 3 33.20422 0.00000 -33.20422 0.00000 0.00000 0.00000 ; methylguanidinium ion
11581 11574 11575 11579 3 20.50160 0.00000 -20.50160 0.00000 0.00000 0.00000 ; imides
11582 11565 11566 11567 3 33.20422 0.00000 -33.20422 0.00000 0.00000 0.00000 ; methylguanidinium ion
11582 11565 11566 11573 3 30.28798 -4.81160 -25.47638 0.00000 0.00000 0.00000 ; imides
11584 6289 6288 6287 3 1.58992 4.76976 0.00000 -6.35968 0.00000 0.00000
11584 6289 6288 6290 3 1.58992 4.76976 0.00000 -6.35968 0.00000 0.00000
11584 6289 6288 6291 3 1.58992 4.76976 0.00000 -6.35968 0.00000 0.00000
11589 11590 11597 11598 3 30.28798 -4.81160 -25.47638 0.00000 0.00000 0.00000 ; imides
11589 11608 11609 11610 3 33.20422 0.00000 -33.20422 0.00000 0.00000 0.00000 ; methylguanidinium ion
11589 11608 11609 11613 3 20.50160 0.00000 -20.50160 0.00000 0.00000 0.00000 ; imides
11590 11589 11608 11607 3 30.28798 -4.81160 -25.47638 0.00000 0.00000 0.00000 ; imides
11590 11589 11608 11609 3 33.20422 0.00000 -33.20422 0.00000 0.00000 0.00000 ; methylguanidinium ion
11590 11597 11598 11599 3 33.20422 0.00000 -33.20422 0.00000 0.00000 0.00000 ; methylguanidinium ion
11590 11597 11598 11607 3 30.28798 -4.81160 -25.47638 0.00000 0.00000 0.00000 ; imides
11591 11590 11597 11598 3 33.20422 0.00000 -33.20422 0.00000 0.00000 0.00000 ; methylguanidinium ion
11592 9589 9588 9587 3 1.58992 4.76976 0.00000 -6.35968 0.00000 0.00000
11592 9589 9588 9590 3 1.58992 4.76976 0.00000 -6.35968 0.00000 0.00000
11592 9589 9588 9591 3 1.58992 4.76976 0.00000 -6.35968 0.00000 0.00000
11597 11590 11591 11592 3 33.20422 0.00000 -33.20422 0.00000 0.00000 0.00000 ; methylguanidinium ion
11597 11590 11591 11595 3 20.50160 0.00000 -20.50160 0.00000 0.00000 0.00000 ; imides
11597 11598 11607 11608 3 30.28798 -4.81160 -25.47638 0.00000 0.00000 0.00000 ; imides
11598 11607 11608 11589 3 30.28798 -4.81160 -25.47638 0.00000 0.00000 0.00000 ; imides
11598 11607 11608 11609 3 33.20422 0.00000 -33.20422 0.00000 0.00000 0.00000 ; methylguanidinium ion
11599 11598 11607 11608 3 33.20422 0.00000 -33.20422 0.00000 0.00000 0.00000 ; methylguanidinium ion
11607 11598 11599 11600 3 33.20422 0.00000 -33.20422 0.00000 0.00000 0.00000 ; methylguanidinium ion
11607 11598 11599 11605 3 20.50160 0.00000 -20.50160 0.00000 0.00000 0.00000 ; imides
11608 11589 11590 11591 3 33.20422 0.00000 -33.20422 0.00000 0.00000 0.00000 ; methylguanidinium ion
11608 11589 11590 11597 3 30.28798 -4.81160 -25.47638 0.00000 0.00000 0.00000 ; imides
11610 4234 4233 4232 3 1.58992 4.76976 0.00000 -6.35968 0.00000 0.00000
11610 4234 4233 4235 3 1.58992 4.76976 0.00000 -6.35968 0.00000 0.00000
11610 4234 4233 4236 3 1.58992 4.76976 0.00000 -6.35968 0.00000 0.00000
11615 11616 11623 11624 3 30.28798 -4.81160 -25.47638 0.00000 0.00000 0.00000 ; imides
11615 11632 11633 11634 3 33.20422 0.00000 -33.20422 0.00000 0.00000 0.00000 ; methylguanidinium ion
11615 11632 11633 11637 3 20.50160 0.00000 -20.50160 0.00000 0.00000 0.00000 ; imides
11616 11615 11632 11631 3 30.28798 -4.81160 -25.47638 0.00000 0.00000 0.00000 ; imides
11616 11615 11632 11633 3 33.20422 0.00000 -33.20422 0.00000 0.00000 0.00000 ; methylguanidinium ion
11616 11623 11624 11625 3 33.20422 0.00000 -33.20422 0.00000 0.00000 0.00000 ; methylguanidinium ion
11616 11623 11624 11631 3 30.28798 -4.81160 -25.47638 0.00000 0.00000 0.00000 ; imides
11617 11616 11623 11624 3 33.20422 0.00000 -33.20422 0.00000 0.00000 0.00000 ; methylguanidinium ion
11618 7039 7038 7037 3 1.58992 4.76976 0.00000 -6.35968 0.00000 0.00000
11618 7039 7038 7040 3 1.58992 4.76976 0.00000 -6.35968 0.00000 0.00000
11618 7039 7038 7041 3 1.58992 4.76976 0.00000 -6.35968 0.00000 0.00000
11623 11616 11617 11618 3 33.20422 0.00000 -33.20422 0.00000 0.00000 0.00000 ; methylguanidinium ion
11623 11616 11617 11621 3 20.50160 0.00000 -20.50160 0.00000 0.00000 0.00000 ; imides
11623 11624 11631 11632 3 30.28798 -4.81160 -25.47638 0.00000 0.00000 0.00000 ; imides
11624 11631 11632 11615 3 30.28798 -4.81160 -25.47638 0.00000 0.00000 0.00000 ; imides
11624 11631 11632 11633 3 33.20422 0.00000 -33.20422 0.00000 0.00000 0.00000 ; methylguanidinium ion
11625 11624 11631 11632 3 33.20422 0.00000 -33.20422 0.00000 0.00000 0.00000 ; methylguanidinium ion
11626 5918 5917 5916 3 1.58992 4.76976 0.00000 -6.35968 0.00000 0.00000
11626 5918 5917 5919 3 1.58992 4.76976 0.00000 -6.35968 0.00000 0.00000
11626 5918 5917 5920 3 1.58992 4.76976 0.00000 -6.35968 0.00000 0.00000
11631 11624 11625 11626 3 33.20422 0.00000 -33.20422 0.00000 0.00000 0.00000 ; methylguanidinium ion
11631 11624 11625 11629 3 20.50160 0.00000 -20.50160 0.00000 0.00000 0.00000 ; imides
11632 11615 11616 11617 3 33.20422 0.00000 -33.20422 0.00000 0.00000 0.00000 ; methylguanidinium ion
11632 11615 11616 11623 3 30.28798 -4.81160 -25.47638 0.00000 0.00000 0.00000 ; imides
11634 6798 6797 6796 3 1.58992 4.76976 0.00000 -6.35968 0.00000 0.00000
11634 6798 6797 6799 3 1.58992 4.76976 0.00000 -6.35968 0.00000 0.00000
11634 6798 6797 6800 3 1.58992 4.76976 0.00000 -6.35968 0.00000 0.00000
11639 11640 11647 11648 3 30.28798 -4.81160 -25.47638 0.00000 0.00000 0.00000 ; imides
11639 11656 11657 11658 3 33.20422 0.00000 -33.20422 0.00000 0.00000 0.00000 ; methylguanidinium ion
11639 11656 11657 11661 3 20.50160 0.00000 -20.50160 0.00000 0.00000 0.00000 ; imides
11640 11639 11656 11655 3 30.28798 -4.81160 -25.47638 0.00000 0.00000 0.00000 ; imides
11640 11639 11656 11657 3 33.20422 0.00000 -33.20422 0.00000 0.00000 0.00000 ; methylguanidinium ion
11640 11647 11648 11649 3 33.20422 0.00000 -33.20422 0.00000 0.00000 0.00000 ; methylguanidinium ion
11640 11647 11648 11655 3 30.28798 -4.81160 -25.47638 0.00000 0.00000 0.00000 ; imides
11641 11640 11647 11648 3 33.20422 0.00000 -33.20422 0.00000 0.00000 0.00000 ; methylguanidinium ion
11642 1745 1744 1743 3 1.58992 4.76976 0.00000 -6.35968 0.00000 0.00000
11642 1745 1744 1746 3 1.58992 4.76976 0.00000 -6.35968 0.00000 0.00000
11642 1745 1744 1747 3 1.58992 4.76976 0.00000 -6.35968 0.00000 0.00000
11647 11640 11641 11642 3 33.20422 0.00000 -33.20422 0.00000 0.00000 0.00000 ; methylguanidinium ion
11647 11640 11641 11645 3 20.50160 0.00000 -20.50160 0.00000 0.00000 0.00000 ; imides
11647 11648 11655 11656 3 30.28798 -4.81160 -25.47638 0.00000 0.00000 0.00000 ; imides
11648 11655 11656 11639 3 30.28798 -4.81160 -25.47638 0.00000 0.00000 0.00000 ; imides
11648 11655 11656 11657 3 33.20422 0.00000 -33.20422 0.00000 0.00000 0.00000 ; methylguanidinium ion
11649 11648 11655 11656 3 33.20422 0.00000 -33.20422 0.00000 0.00000 0.00000 ; methylguanidinium ion
11650 6486 6485 6484 3 1.58992 4.76976 0.00000 -6.35968 0.00000 0.00000
11650 6486 6485 6487 3 1.58992 4.76976 0.00000 -6.35968 0.00000 0.00000
11650 6486 6485 6488 3 1.58992 4.76976 0.00000 -6.35968 0.00000 0.00000
11655 11648 11649 11650 3 33.20422 0.00000 -33.20422 0.00000 0.00000 0.00000 ; methylguanidinium ion
11655 11648 11649 11653 3 20.50160 0.00000 -20.50160 0.00000 0.00000 0.00000 ; imides
11656 11639 11640 11641 3 33.20422 0.00000 -33.20422 0.00000 0.00000 0.00000 ; methylguanidinium ion
11656 11639 11640 11647 3 30.28798 -4.81160 -25.47638 0.00000 0.00000 0.00000 ; imides
11658 6571 6570 6569 3 1.58992 4.76976 0.00000 -6.35968 0.00000 0.00000
11658 6571 6570 6572 3 1.58992 4.76976 0.00000 -6.35968 0.00000 0.00000
11658 6571 6570 6573 3 1.58992 4.76976 0.00000 -6.35968 0.00000 0.00000
11663 11664 11673 11674 3 30.28798 -4.81160 -25.47638 0.00000 0.00000 0.00000 ; imides
11663 11684 11685 11686 3 33.20422 0.00000 -33.20422 0.00000 0.00000 0.00000 ; methylguanidinium ion
11663 11684 11685 11689 3 20.50160 0.00000 -20.50160 0.00000 0.00000 0.00000 ; imides
11664 11663 11684 11683 3 30.28798 -4.81160 -25.47638 0.00000 0.00000 0.00000 ; imides
11664 11663 11684 11685 3 33.20422 0.00000 -33.20422 0.00000 0.00000 0.00000 ; methylguanidinium ion
11664 11673 11674 11675 3 33.20422 0.00000 -33.20422 0.00000 0.00000 0.00000 ; methylguanidinium ion
11664 11673 11674 11683 3 30.28798 -4.81160 -25.47638 0.00000 0.00000 0.00000 ; imides
11665 11664 11673 11674 3 33.20422 0.00000 -33.20422 0.00000 0.00000 0.00000 ; methylguanidinium ion
11673 11664 11665 11666 3 33.20422 0.00000 -33.20422 0.00000 0.00000 0.00000 ; methylguanidinium ion
11673 11664 11665 11671 3 20.50160 0.00000 -20.50160 0.00000 0.00000 0.00000 ; imides
11673 11674 11683 11684 3 30.28798 -4.81160 -25.47638 0.00000 0.00000 0.00000 ; imides
11674 11683 11684 11663 3 30.28798 -4.81160 -25.47638 0.00000 0.00000 0.00000 ; imides
11674 11683 11684 11685 3 33.20422 0.00000 -33.20422 0.00000 0.00000 0.00000 ; methylguanidinium ion
11675 11674 11683 11684 3 33.20422 0.00000 -33.20422 0.00000 0.00000 0.00000 ; methylguanidinium ion
11683 11674 11675 11676 3 33.20422 0.00000 -33.20422 0.00000 0.00000 0.00000 ; methylguanidinium ion
11683 11674 11675 11681 3 20.50160 0.00000 -20.50160 0.00000 0.00000 0.00000 ; imides
11684 11663 11664 11665 3 33.20422 0.00000 -33.20422 0.00000 0.00000 0.00000 ; methylguanidinium ion
11684 11663 11664 11673 3 30.28798 -4.81160 -25.47638 0.00000 0.00000 0.00000 ; imides
11686 3446 3445 3444 3 1.58992 4.76976 0.00000 -6.35968 0.00000 0.00000
11686 3446 3445 3447 3 1.58992 4.76976 0.00000 -6.35968 0.00000 0.00000
11686 3446 3445 3448 3 1.58992 4.76976 0.00000 -6.35968 0.00000 0.00000
11691 11692 11699 11700 3 30.28798 -4.81160 -25.47638 0.00000 0.00000 0.00000 ; imides
11691 11708 11709 11710 3 33.20422 0.00000 -33.20422 0.00000 0.00000 0.00000 ; methylguanidinium ion
11691 11708 11709 11714 3 20.50160 0.00000 -20.50160 0.00000 0.00000 0.00000 ; imides
11692 11691 11708 11707 3 30.28798 -4.81160 -25.47638 0.00000 0.00000 0.00000 ; imides
11692 11691 11708 11709 3 33.20422 0.00000 -33.20422 0.00000 0.00000 0.00000 ; methylguanidinium ion
11692 11699 11700 11701 3 33.20422 0.00000 -33.20422 0.00000 0.00000 0.00000 ; methylguanidinium ion
11692 11699 11700 11707 3 30.28798 -4.81160 -25.47638 0.00000 0.00000 0.00000 ; imides
11693 11692 11699 11700 3 33.20422 0.00000 -33.20422 0.00000 0.00000 0.00000 ; methylguanidinium ion
11694 437 436 435 3 1.58992 4.76976 0.00000 -6.35968 0.00000 0.00000
11694 437 436 438 3 1.58992 4.76976 0.00000 -6.35968 0.00000 0.00000
11694 437 436 439 3 1.58992 4.76976 0.00000 -6.35968 0.00000 0.00000
11699 11692 11693 11694 3 33.20422 0.00000 -33.20422 0.00000 0.00000 0.00000 ; methylguanidinium ion
11699 11692 11693 11697 3 20.50160 0.00000 -20.50160 0.00000 0.00000 0.00000 ; imides
11699 11700 11707 11708 3 30.28798 -4.81160 -25.47638 0.00000 0.00000 0.00000 ; imides
11700 11707 11708 11691 3 30.28798 -4.81160 -25.47638 0.00000 0.00000 0.00000 ; imides
11700 11707 11708 11709 3 33.20422 0.00000 -33.20422 0.00000 0.00000 0.00000 ; methylguanidinium ion
11701 11700 11707 11708 3 33.20422 0.00000 -33.20422 0.00000 0.00000 0.00000 ; methylguanidinium ion
11702 7739 7738 7737 3 1.58992 4.76976 0.00000 -6.35968 0.00000 0.00000
11702 7739 7738 7740 3 1.58992 4.76976 0.00000 -6.35968 0.00000 0.00000
11702 7739 7738 7741 3 1.58992 4.76976 0.00000 -6.35968 0.00000 0.00000
11707 11700 11701 11702 3 33.20422 0.00000 -33.20422 0.00000 0.00000 0.00000 ; methylguanidinium ion
11707 11700 11701 11705 3 20.50160 0.00000 -20.50160 0.00000 0.00000 0.00000 ; imides
11708 11691 11692 11693 3 33.20422 0.00000 -33.20422 0.00000 0.00000 0.00000 ; methylguanidinium ion
11708 11691 11692 11699 3 30.28798 -4.81160 -25.47638 0.00000 0.00000 0.00000 ; imides
11710 11711 12764 12763 3 1.58992 4.76976 0.00000 -6.35968 0.00000 0.00000
11710 11711 12764 12765 3 1.58992 4.76976 0.00000 -6.35968 0.00000 0.00000
11710 11711 12764 12766 3 1.58992 4.76976 0.00000 -6.35968 0.00000 0.00000
11711 12764 12763 12762 3 1.78866 3.49154 0.53555 -5.81576 0.00000 0.00000
11711 12764 12763 12767 3 -1.26775 3.02085 1.74473 -3.49782 0.00000 0.00000
11716 11717 11724 11725 3 30.28798 -4.81160 -25.47638 0.00000 0.00000 0.00000 ; imides
11716 11733 11734 11735 3 33.20422 0.00000 -33.20422 0.00000 0.00000 0.00000 ; methylguanidinium ion
11716 11733 11734 11738 3 20.50160 0.00000 -20.50160 0.00000 0.00000 0.00000 ; imides
11717 11716 11733 11732 3 30.28798 -4.81160 -25.47638 0.00000 0.00000 0.00000 ; imides
11717 11716 11733 11734 3 33.20422 0.00000 -33.20422 0.00000 0.00000 0.00000 ; methylguanidinium ion
11717 11724 11725 11726 3 33.20422 0.00000 -33.20422 0.00000 0.00000 0.00000 ; methylguanidinium ion
11717 11724 11725 11732 3 30.28798 -4.81160 -25.47638 0.00000 0.00000 0.00000 ; imides
11718 11717 11724 11725 3 33.20422 0.00000 -33.20422 0.00000 0.00000 0.00000 ; methylguanidinium ion
11719 9209 9208 9207 3 1.58992 4.76976 0.00000 -6.35968 0.00000 0.00000
11719 9209 9208 9210 3 1.58992 4.76976 0.00000 -6.35968 0.00000 0.00000
11719 9209 9208 9211 3 1.58992 4.76976 0.00000 -6.35968 0.00000 0.00000
11724 11717 11718 11719 3 33.20422 0.00000 -33.20422 0.00000 0.00000 0.00000 ; methylguanidinium ion
11724 11717 11718 11722 3 20.50160 0.00000 -20.50160 0.00000 0.00000 0.00000 ; imides
11724 11725 11732 11733 3 30.28798 -4.81160 -25.47638 0.00000 0.00000 0.00000 ; imides
11725 11732 11733 11716 3 30.28798 -4.81160 -25.47638 0.00000 0.00000 0.00000 ; imides
11725 11732 11733 11734 3 33.20422 0.00000 -33.20422 0.00000 0.00000 0.00000 ; methylguanidinium ion
11726 11725 11732 11733 3 33.20422 0.00000 -33.20422 0.00000 0.00000 0.00000 ; methylguanidinium ion
11727 862 861 860 3 1.58992 4.76976 0.00000 -6.35968 0.00000 0.00000
11727 862 861 863 3 1.58992 4.76976 0.00000 -6.35968 0.00000 0.00000
11727 862 861 864 3 1.58992 4.76976 0.00000 -6.35968 0.00000 0.00000
11732 11725 11726 11727 3 33.20422 0.00000 -33.20422 0.00000 0.00000 0.00000 ; methylguanidinium ion
11732 11725 11726 11730 3 20.50160 0.00000 -20.50160 0.00000 0.00000 0.00000 ; imides
11733 11716 11717 11718 3 33.20422 0.00000 -33.20422 0.00000 0.00000 0.00000 ; methylguanidinium ion
11733 11716 11717 11724 3 30.28798 -4.81160 -25.47638 0.00000 0.00000 0.00000 ; imides
11735 71 70 69 3 1.58992 4.76976 0.00000 -6.35968 0.00000 0.00000
11735 71 70 72 3 1.58992 4.76976 0.00000 -6.35968 0.00000 0.00000
11735 71 70 73 3 1.58992 4.76976 0.00000 -6.35968 0.00000 0.00000
11740 11741 11748 11749 3 30.28798 -4.81160 -25.47638 0.00000 0.00000 0.00000 ; imides
11740 11757 11758 11759 3 33.20422 0.00000 -33.20422 0.00000 0.00000 0.00000 ; methylguanidinium ion
11740 11757 11758 11762 3 20.50160 0.00000 -20.50160 0.00000 0.00000 0.00000 ; imides
11741 11740 11757 11756 3 30.28798 -4.81160 -25.47638 0.00000 0.00000 0.00000 ; imides
11741 11740 11757 11758 3 33.20422 0.00000 -33.20422 0.00000 0.00000 0.00000 ; methylguanidinium ion
11741 11748 11749 11750 3 33.20422 0.00000 -33.20422 0.00000 0.00000 0.00000 ; methylguanidinium ion
11741 11748 11749 11756 3 30.28798 -4.81160 -25.47638 0.00000 0.00000 0.00000 ; imides
11742 11741 11748 11749 3 33.20422 0.00000 -33.20422 0.00000 0.00000 0.00000 ; methylguanidinium ion
11743 7670 7669 7668 3 1.58992 4.76976 0.00000 -6.35968 0.00000 0.00000
11743 7670 7669 7671 3 1.58992 4.76976 0.00000 -6.35968 0.00000 0.00000
11743 7670 7669 7672 3 1.58992 4.76976 0.00000 -6.35968 0.00000 0.00000
11748 11741 11742 11743 3 33.20422 0.00000 -33.20422 0.00000 0.00000 0.00000 ; methylguanidinium ion
11748 11741 11742 11746 3 20.50160 0.00000 -20.50160 0.00000 0.00000 0.00000 ; imides
11748 11749 11756 11757 3 30.28798 -4.81160 -25.47638 0.00000 0.00000 0.00000 ; imides
11749 11756 11757 11740 3 30.28798 -4.81160 -25.47638 0.00000 0.00000 0.00000 ; imides
11749 11756 11757 11758 3 33.20422 0.00000 -33.20422 0.00000 0.00000 0.00000 ; methylguanidinium ion
11750 11749 11756 11757 3 33.20422 0.00000 -33.20422 0.00000 0.00000 0.00000 ; methylguanidinium ion
11751 8940 8939 8938 3 1.58992 4.76976 0.00000 -6.35968 0.00000 0.00000
11751 8940 8939 8941 3 1.58992 4.76976 0.00000 -6.35968 0.00000 0.00000
11751 8940 8939 8942 3 1.58992 4.76976 0.00000 -6.35968 0.00000 0.00000
11756 11749 11750 11751 3 33.20422 0.00000 -33.20422 0.00000 0.00000 0.00000 ; methylguanidinium ion
11756 11749 11750 11754 3 20.50160 0.00000 -20.50160 0.00000 0.00000 0.00000 ; imides
11757 11740 11741 11742 3 33.20422 0.00000 -33.20422 0.00000 0.00000 0.00000 ; methylguanidinium ion
11757 11740 11741 11748 3 30.28798 -4.81160 -25.47638 0.00000 0.00000 0.00000 ; imides
11759 1514 1513 1512 3 1.58992 4.76976 0.00000 -6.35968 0.00000 0.00000
11759 1514 1513 1515 3 1.58992 4.76976 0.00000 -6.35968 0.00000 0.00000
11759 1514 1513 1516 3 1.58992 4.76976 0.00000 -6.35968 0.00000 0.00000
11764 11765 11772 11773 3 30.28798 -4.81160 -25.47638 0.00000 0.00000 0.00000 ; imides
11764 11781 11782 11783 3 33.20422 0.00000 -33.20422 0.00000 0.00000 0.00000 ; methylguanidinium ion
11764 11781 11782 11786 3 20.50160 0.00000 -20.50160 0.00000 0.00000 0.00000 ; imides
11765 11764 11781 11780 3 30.28798 -4.81160 -25.47638 0.00000 0.00000 0.00000 ; imides
11765 11764 11781 11782 3 33.20422 0.00000 -33.20422 0.00000 0.00000 0.00000 ; methylguanidinium ion
11765 11772 11773 11774 3 33.20422 0.00000 -33.20422 0.00000 0.00000 0.00000 ; methylguanidinium ion
11765 11772 11773 11780 3 30.28798 -4.81160 -25.47638 0.00000 0.00000 0.00000 ; imides
11766 11765 11772 11773 3 33.20422 0.00000 -33.20422 0.00000 0.00000 0.00000 ; methylguanidinium ion
11767 2569 2568 2567 3 1.58992 4.76976 0.00000 -6.35968 0.00000 0.00000
11767 2569 2568 2570 3 1.58992 4.76976 0.00000 -6.35968 0.00000 0.00000
11767 2569 2568 2571 3 1.58992 4.76976 0.00000 -6.35968 0.00000 0.00000
11772 11765 11766 11767 3 33.20422 0.00000 -33.20422 0.00000 0.00000 0.00000 ; methylguanidinium ion
11772 11765 11766 11770 3 20.50160 0.00000 -20.50160 0.00000 0.00000 0.00000 ; imides
11772 11773 11780 11781 3 30.28798 -4.81160 -25.47638 0.00000 0.00000 0.00000 ; imides
11773 11780 11781 11764 3 30.28798 -4.81160 -25.47638 0.00000 0.00000 0.00000 ; imides
11773 11780 11781 11782 3 33.20422 0.00000 -33.20422 0.00000 0.00000 0.00000 ; methylguanidinium ion
11774 11773 11780 11781 3 33.20422 0.00000 -33.20422 0.00000 0.00000 0.00000 ; methylguanidinium ion
11775 8786 8785 8784 3 1.58992 4.76976 0.00000 -6.35968 0.00000 0.00000
11775 8786 8785 8787 3 1.58992 4.76976 0.00000 -6.35968 0.00000 0.00000
11775 8786 8785 8788 3 1.58992 4.76976 0.00000 -6.35968 0.00000 0.00000
11780 11773 11774 11775 3 33.20422 0.00000 -33.20422 0.00000 0.00000 0.00000 ; methylguanidinium ion
11780 11773 11774 11778 3 20.50160 0.00000 -20.50160 0.00000 0.00000 0.00000 ; imides
11781 11764 11765 11766 3 33.20422 0.00000 -33.20422 0.00000 0.00000 0.00000 ; methylguanidinium ion
11781 11764 11765 11772 3 30.28798 -4.81160 -25.47638 0.00000 0.00000 0.00000 ; imides
11783 1800 1799 1798 3 1.58992 4.76976 0.00000 -6.35968 0.00000 0.00000
11783 1800 1799 1801 3 1.58992 4.76976 0.00000 -6.35968 0.00000 0.00000
11783 1800 1799 1802 3 1.58992 4.76976 0.00000 -6.35968 0.00000 0.00000
11788 11789 11797 11798 3 30.28798 -4.81160 -25.47638 0.00000 0.00000 0.00000 ; imides
11788 11806 11807 11808 3 33.20422 0.00000 -33.20422 0.00000 0.00000 0.00000 ; methylguanidinium ion
11788 11806 11807 11811 3 20.50160 0.00000 -20.50160 0.00000 0.00000 0.00000 ; imides
11789 11788 11806 11805 3 30.28798 -4.81160 -25.47638 0.00000 0.00000 0.00000 ; imides
11789 11788 11806 11807 3 33.20422 0.00000 -33.20422 0.00000 0.00000 0.00000 ; methylguanidinium ion
11789 11797 11798 11799 3 33.20422 0.00000 -33.20422 0.00000 0.00000 0.00000 ; methylguanidinium ion
11789 11797 11798 11805 3 30.28798 -4.81160 -25.47638 0.00000 0.00000 0.00000 ; imides
11790 11789 11797 11798 3 33.20422 0.00000 -33.20422 0.00000 0.00000 0.00000 ; methylguanidinium ion
11791 11792 12147 12146 3 1.58992 4.76976 0.00000 -6.35968 0.00000 0.00000
11791 11792 12147 12148 3 1.58992 4.76976 0.00000 -6.35968 0.00000 0.00000
11791 11792 12147 12149 3 1.58992 4.76976 0.00000 -6.35968 0.00000 0.00000
11792 12147 12146 12145 3 1.78866 3.49154 0.53555 -5.81576 0.00000 0.00000
11792 12147 12146 12150 3 -1.26775 3.02085 1.74473 -3.49782 0.00000 0.00000
11797 11789 11790 11791 3 33.20422 0.00000 -33.20422 0.00000 0.00000 0.00000 ; methylguanidinium ion
11797 11789 11790 11795 3 20.50160 0.00000 -20.50160 0.00000 0.00000 0.00000 ; imides
11797 11798 11805 11806 3 30.28798 -4.81160 -25.47638 0.00000 0.00000 0.00000 ; imides
11798 11805 11806 11788 3 30.28798 -4.81160 -25.47638 0.00000 0.00000 0.00000 ; imides
11798 11805 11806 11807 3 33.20422 0.00000 -33.20422 0.00000 0.00000 0.00000 ; methylguanidinium ion
11799 11798 11805 11806 3 33.20422 0.00000 -33.20422 0.00000 0.00000 0.00000 ; methylguanidinium ion
11800 3701 3700 3699 3 1.58992 4.76976 0.00000 -6.35968 0.00000 0.00000
11800 3701 3700 3702 3 1.58992 4.76976 0.00000 -6.35968 0.00000 0.00000
11800 3701 3700 3703 3 1.58992 4.76976 0.00000 -6.35968 0.00000 0.00000
11805 11798 11799 11800 3 33.20422 0.00000 -33.20422 0.00000 0.00000 0.00000 ; methylguanidinium ion
11805 11798 11799 11803 3 20.50160 0.00000 -20.50160 0.00000 0.00000 0.00000 ; imides
11806 11788 11789 11790 3 33.20422 0.00000 -33.20422 0.00000 0.00000 0.00000 ; methylguanidinium ion
11806 11788 11789 11797 3 30.28798 -4.81160 -25.47638 0.00000 0.00000 0.00000 ; imides
11808 7522 7521 7520 3 1.58992 4.76976 0.00000 -6.35968 0.00000 0.00000
11808 7522 7521 7523 3 1.58992 4.76976 0.00000 -6.35968 0.00000 0.00000
11808 7522 7521 7524 3 1.58992 4.76976 0.00000 -6.35968 0.00000 0.00000
11813 11814 11821 11822 3 30.28798 -4.81160 -25.47638 0.00000 0.00000 0.00000 ; imides
11813 11830 11831 11832 3 33.20422 0.00000 -33.20422 0.00000 0.00000 0.00000 ; methylguanidinium ion
11813 11830 11831 11836 3 20.50160 0.00000 -20.50160 0.00000 0.00000 0.00000 ; imides
11814 11813 11830 11829 3 30.28798 -4.81160 -25.47638 0.00000 0.00000 0.00000 ; imides
11814 11813 11830 11831 3 33.20422 0.00000 -33.20422 0.00000 0.00000 0.00000 ; methylguanidinium ion
11814 11821 11822 11823 3 33.20422 0.00000 -33.20422 0.00000 0.00000 0.00000 ; methylguanidinium ion
11814 11821 11822 11829 3 30.28798 -4.81160 -25.47638 0.00000 0.00000 0.00000 ; imides
11815 11814 11821 11822 3 33.20422 0.00000 -33.20422 0.00000 0.00000 0.00000 ; methylguanidinium ion
11816 4002 4001 4000 3 1.58992 4.76976 0.00000 -6.35968 0.00000 0.00000
11816 4002 4001 4003 3 1.58992 4.76976 0.00000 -6.35968 0.00000 0.00000
11816 4002 4001 4004 3 1.58992 4.76976 0.00000 -6.35968 0.00000 0.00000
11821 11814 11815 11816 3 33.20422 0.00000 -33.20422 0.00000 0.00000 0.00000 ; methylguanidinium ion
11821 11814 11815 11819 3 20.50160 0.00000 -20.50160 0.00000 0.00000 0.00000 ; imides
11821 11822 11829 11830 3 30.28798 -4.81160 -25.47638 0.00000 0.00000 0.00000 ; imides
11822 11829 11830 11813 3 30.28798 -4.81160 -25.47638 0.00000 0.00000 0.00000 ; imides
11822 11829 11830 11831 3 33.20422 0.00000 -33.20422 0.00000 0.00000 0.00000 ; methylguanidinium ion
11823 11822 11829 11830 3 33.20422 0.00000 -33.20422 0.00000 0.00000 0.00000 ; methylguanidinium ion
11824 3255 3254 3253 3 1.58992 4.76976 0.00000 -6.35968 0.00000 0.00000
11824 3255 3254 3256 3 1.58992 4.76976 0.00000 -6.35968 0.00000 0.00000
11824 3255 3254 3257 3 1.58992 4.76976 0.00000 -6.35968 0.00000 0.00000
11829 11822 11823 11824 3 33.20422 0.00000 -33.20422 0.00000 0.00000 0.00000 ; methylguanidinium ion
11829 11822 11823 11827 3 20.50160 0.00000 -20.50160 0.00000 0.00000 0.00000 ; imides
11830 11813 11814 11815 3 33.20422 0.00000 -33.20422 0.00000 0.00000 0.00000 ; methylguanidinium ion
11830 11813 11814 11821 3 30.28798 -4.81160 -25.47638 0.00000 0.00000 0.00000 ; imides
11832 11833 12378 12377 3 1.58992 4.76976 0.00000 -6.35968 0.00000 0.00000
11832 11833 12378 12379 3 1.58992 4.76976 0.00000 -6.35968 0.00000 0.00000
11832 11833 12378 12380 3 1.58992 4.76976 0.00000 -6.35968 0.00000 0.00000
11833 12378 12377 12376 3 1.78866 3.49154 0.53555 -5.81576 0.00000 0.00000
11833 12378 12377 12381 3 -1.26775 3.02085 1.74473 -3.49782 0.00000 0.00000
11838 11839 11846 11847 3 30.28798 -4.81160 -25.47638 0.00000 0.00000 0.00000 ; imides
11838 11855 11856 11857 3 33.20422 0.00000 -33.20422 0.00000 0.00000 0.00000 ; methylguanidinium ion
11838 11855 11856 11861 3 20.50160 0.00000 -20.50160 0.00000 0.00000 0.00000 ; imides
11839 11838 11855 11854 3 30.28798 -4.81160 -25.47638 0.00000 0.00000 0.00000 ; imides
11839 11838 11855 11856 3 33.20422 0.00000 -33.20422 0.00000 0.00000 0.00000 ; methylguanidinium ion
11839 11846 11847 11848 3 33.20422 0.00000 -33.20422 0.00000 0.00000 0.00000 ; methylguanidinium ion
11839 11846 11847 11854 3 30.28798 -4.81160 -25.47638 0.00000 0.00000 0.00000 ; imides
11840 11839 11846 11847 3 33.20422 0.00000 -33.20422 0.00000 0.00000 0.00000 ; methylguanidinium ion
11841 11401 11400 11399 3 1.58992 4.76976 0.00000 -6.35968 0.00000 0.00000
11841 11401 11400 11402 3 1.58992 4.76976 0.00000 -6.35968 0.00000 0.00000
11841 11401 11400 11403 3 1.58992 4.76976 0.00000 -6.35968 0.00000 0.00000
11846 11839 11840 11841 3 33.20422 0.00000 -33.20422 0.00000 0.00000 0.00000 ; methylguanidinium ion
11846 11839 11840 11844 3 20.50160 0.00000 -20.50160 0.00000 0.00000 0.00000 ; imides
11846 11847 11854 11855 3 30.28798 -4.81160 -25.47638 0.00000 0.00000 0.00000 ; imides
11847 11854 11855 11838 3 30.28798 -4.81160 -25.47638 0.00000 0.00000 0.00000 ; imides
11847 11854 11855 11856 3 33.20422 0.00000 -33.20422 0.00000 0.00000 0.00000 ; methylguanidinium ion
11848 11847 11854 11855 3 33.20422 0.00000 -33.20422 0.00000 0.00000 0.00000 ; methylguanidinium ion
11849 3492 3491 3490 3 1.58992 4.76976 0.00000 -6.35968 0.00000 0.00000
11849 3492 3491 3493 3 1.58992 4.76976 0.00000 -6.35968 0.00000 0.00000
11849 3492 3491 3494 3 1.58992 4.76976 0.00000 -6.35968 0.00000 0.00000
11854 11847 11848 11849 3 33.20422 0.00000 -33.20422 0.00000 0.00000 0.00000 ; methylguanidinium ion
11854 11847 11848 11852 3 20.50160 0.00000 -20.50160 0.00000 0.00000 0.00000 ; imides
11855 11838 11839 11840 3 33.20422 0.00000 -33.20422 0.00000 0.00000 0.00000 ; methylguanidinium ion
11855 11838 11839 11846 3 30.28798 -4.81160 -25.47638 0.00000 0.00000 0.00000 ; imides
11857 11858 12017 12016 3 1.58992 4.76976 0.00000 -6.35968 0.00000 0.00000
11857 11858 12017 12018 3 1.58992 4.76976 0.00000 -6.35968 0.00000 0.00000
11857 11858 12017 12019 3 1.58992 4.76976 0.00000 -6.35968 0.00000 0.00000
11858 12017 12016 12015 3 1.78866 3.49154 0.53555 -5.81576 0.00000 0.00000
11858 12017 12016 12020 3 -1.26775 3.02085 1.74473 -3.49782 0.00000 0.00000
11863 11864 11871 11872 3 30.28798 -4.81160 -25.47638 0.00000 0.00000 0.00000 ; imides
11863 11880 11881 11882 3 33.20422 0.00000 -33.20422 0.00000 0.00000 0.00000 ; methylguanidinium ion
11863 11880 11881 11885 3 20.50160 0.00000 -20.50160 0.00000 0.00000 0.00000 ; imides
11864 11863 11880 11879 3 30.28798 -4.81160 -25.47638 0.00000 0.00000 0.00000 ; imides
11864 11863 11880 11881 3 33.20422 0.00000 -33.20422 0.00000 0.00000 0.00000 ; methylguanidinium ion
11864 11871 11872 11873 3 33.20422 0.00000 -33.20422 0.00000 0.00000 0.00000 ; methylguanidinium ion
11864 11871 11872 11879 3 30.28798 -4.81160 -25.47638 0.00000 0.00000 0.00000 ; imides
11865 11864 11871 11872 3 33.20422 0.00000 -33.20422 0.00000 0.00000 0.00000 ; methylguanidinium ion
11866 3518 3517 3516 3 1.58992 4.76976 0.00000 -6.35968 0.00000 0.00000
11866 3518 3517 3519 3 1.58992 4.76976 0.00000 -6.35968 0.00000 0.00000
11866 3518 3517 3520 3 1.58992 4.76976 0.00000 -6.35968 0.00000 0.00000
11871 11864 11865 11866 3 33.20422 0.00000 -33.20422 0.00000 0.00000 0.00000 ; methylguanidinium ion
11871 11864 11865 11869 3 20.50160 0.00000 -20.50160 0.00000 0.00000 0.00000 ; imides
11871 11872 11879 11880 3 30.28798 -4.81160 -25.47638 0.00000 0.00000 0.00000 ; imides
11872 11879 11880 11863 3 30.28798 -4.81160 -25.47638 0.00000 0.00000 0.00000 ; imides
11872 11879 11880 11881 3 33.20422 0.00000 -33.20422 0.00000 0.00000 0.00000 ; methylguanidinium ion
11873 11872 11879 11880 3 33.20422 0.00000 -33.20422 0.00000 0.00000 0.00000 ; methylguanidinium ion
11874 8760 8759 8758 3 1.58992 4.76976 0.00000 -6.35968 0.00000 0.00000
11874 8760 8759 8761 3 1.58992 4.76976 0.00000 -6.35968 0.00000 0.00000
11874 8760 8759 8762 3 1.58992 4.76976 0.00000 -6.35968 0.00000 0.00000
11879 11872 11873 11874 3 33.20422 0.00000 -33.20422 0.00000 0.00000 0.00000 ; methylguanidinium ion
11879 11872 11873 11877 3 20.50160 0.00000 -20.50160 0.00000 0.00000 0.00000 ; imides
11880 11863 11864 11865 3 33.20422 0.00000 -33.20422 0.00000 0.00000 0.00000 ; methylguanidinium ion
11880 11863 11864 11871 3 30.28798 -4.81160 -25.47638 0.00000 0.00000 0.00000 ; imides
11882 8118 8117 8116 3 1.58992 4.76976 0.00000 -6.35968 0.00000 0.00000
11882 8118 8117 8119 3 1.58992 4.76976 0.00000 -6.35968 0.00000 0.00000
11882 8118 8117 8120 3 1.58992 4.76976 0.00000 -6.35968 0.00000 0.00000
11887 11888 11895 11896 3 30.28798 -4.81160 -25.47638 0.00000 0.00000 0.00000 ; imides
11887 11904 11905 11906 3 33.20422 0.00000 -33.20422 0.00000 0.00000 0.00000 ; methylguanidinium ion
11887 11904 11905 11910 3 20.50160 0.00000 -20.50160 0.00000 0.00000 0.00000 ; imides
11888 11887 11904 11903 3 30.28798 -4.81160 -25.47638 0.00000 0.00000 0.00000 ; imides
11888 11887 11904 11905 3 33.20422 0.00000 -33.20422 0.00000 0.00000 0.00000 ; methylguanidinium ion
11888 11895 11896 11897 3 33.20422 0.00000 -33.20422 0.00000 0.00000 0.00000 ; methylguanidinium ion
11888 11895 11896 11903 3 30.28798 -4.81160 -25.47638 0.00000 0.00000 0.00000 ; imides
11889 11888 11895 11896 3 33.20422 0.00000 -33.20422 0.00000 0.00000 0.00000 ; methylguanidinium ion
11890 3781 3780 3779 3 1.58992 4.76976 0.00000 -6.35968 0.00000 0.00000
11890 3781 3780 3782 3 1.58992 4.76976 0.00000 -6.35968 0.00000 0.00000
11890 3781 3780 3783 3 1.58992 4.76976 0.00000 -6.35968 0.00000 0.00000
11895 11888 11889 11890 3 33.20422 0.00000 -33.20422 0.00000 0.00000 0.00000 ; methylguanidinium ion
11895 11888 11889 11893 3 20.50160 0.00000 -20.50160 0.00000 0.00000 0.00000 ; imides
11895 11896 11903 11904 3 30.28798 -4.81160 -25.47638 0.00000 0.00000 0.00000 ; imides
11896 11903 11904 11887 3 30.28798 -4.81160 -25.47638 0.00000 0.00000 0.00000 ; imides
11896 11903 11904 11905 3 33.20422 0.00000 -33.20422 0.00000 0.00000 0.00000 ; methylguanidinium ion
11897 11896 11903 11904 3 33.20422 0.00000 -33.20422 0.00000 0.00000 0.00000 ; methylguanidinium ion
11898 9828 9827 9826 3 1.58992 4.76976 0.00000 -6.35968 0.00000 0.00000
11898 9828 9827 9829 3 1.58992 4.76976 0.00000 -6.35968 0.00000 0.00000
11898 9828 9827 9830 3 1.58992 4.76976 0.00000 -6.35968 0.00000 0.00000
11903 11896 11897 11898 3 33.20422 0.00000 -33.20422 0.00000 0.00000 0.00000 ; methylguanidinium ion
11903 11896 11897 11901 3 20.50160 0.00000 -20.50160 0.00000 0.00000 0.00000 ; imides
11904 11887 11888 11889 3 33.20422 0.00000 -33.20422 0.00000 0.00000 0.00000 ; methylguanidinium ion
11904 11887 11888 11895 3 30.28798 -4.81160 -25.47638 0.00000 0.00000 0.00000 ; imides
11906 11907 12972 12971 3 1.58992 4.76976 0.00000 -6.35968 0.00000 0.00000
11906 11907 12972 12973 3 1.58992 4.76976 0.00000 -6.35968 0.00000 0.00000
11906 11907 12972 12974 3 1.58992 4.76976 0.00000 -6.35968 0.00000 0.00000
11907 12972 12971 12970 3 1.78866 3.49154 0.53555 -5.81576 0.00000 0.00000
11907 12972 12971 12975 3 -1.26775 3.02085 1.74473 -3.49782 0.00000 0.00000
11912 11913 11920 11921 3 30.28798 -4.81160 -25.47638 0.00000 0.00000 0.00000 ; imides
11912 11929 11930 11931 3 33.20422 0.00000 -33.20422 0.00000 0.00000 0.00000 ; methylguanidinium ion
11912 11929 11930 11935 3 20.50160 0.00000 -20.50160 0.00000 0.00000 0.00000 ; imides
11913 11912 11929 11928 3 30.28798 -4.81160 -25.47638 0.00000 0.00000 0.00000 ; imides
11913 11912 11929 11930 3 33.20422 0.00000 -33.20422 0.00000 0.00000 0.00000 ; methylguanidinium ion
11913 11920 11921 11922 3 33.20422 0.00000 -33.20422 0.00000 0.00000 0.00000 ; methylguanidinium ion
11913 11920 11921 11928 3 30.28798 -4.81160 -25.47638 0.00000 0.00000 0.00000 ; imides
11914 11913 11920 11921 3 33.20422 0.00000 -33.20422 0.00000 0.00000 0.00000 ; methylguanidinium ion
11915 925 924 923 3 1.58992 4.76976 0.00000 -6.35968 0.00000 0.00000
11915 925 924 926 3 1.58992 4.76976 0.00000 -6.35968 0.00000 0.00000
11915 925 924 927 3 1.58992 4.76976 0.00000 -6.35968 0.00000 0.00000
11920 11913 11914 11915 3 33.20422 0.00000 -33.20422 0.00000 0.00000 0.00000 ; methylguanidinium ion
11920 11913 11914 11918 3 20.50160 0.00000 -20.50160 0.00000 0.00000 0.00000 ; imides
11920 11921 11928 11929 3 30.28798 -4.81160 -25.47638 0.00000 0.00000 0.00000 ; imides
11921 11928 11929 11912 3 30.28798 -4.81160 -25.47638 0.00000 0.00000 0.00000 ; imides
11921 11928 11929 11930 3 33.20422 0.00000 -33.20422 0.00000 0.00000 0.00000 ; methylguanidinium ion
11922 11921 11928 11929 3 33.20422 0.00000 -33.20422 0.00000 0.00000 0.00000 ; methylguanidinium ion
11923 3070 3069 3068 3 1.58992 4.76976 0.00000 -6.35968 0.00000 0.00000
11923 3070 3069 3071 3 1.58992 4.76976 0.00000 -6.35968 0.00000 0.00000
11923 3070 3069 3072 3 1.58992 4.76976 0.00000 -6.35968 0.00000 0.00000
11928 11921 11922 11923 3 33.20422 0.00000 -33.20422 0.00000 0.00000 0.00000 ; methylguanidinium ion
11928 11921 11922 11926 3 20.50160 0.00000 -20.50160 0.00000 0.00000 0.00000 ; imides
11929 11912 11913 11914 3 33.20422 0.00000 -33.20422 0.00000 0.00000 0.00000 ; methylguanidinium ion
11929 11912 11913 11920 3 30.28798 -4.81160 -25.47638 0.00000 0.00000 0.00000 ; imides
11931 11932 12528 12527 3 1.58992 4.76976 0.00000 -6.35968 0.00000 0.00000
11931 11932 12528 12529 3 1.58992 4.76976 0.00000 -6.35968 0.00000 0.00000
11931 11932 12528 12530 3 1.58992 4.76976 0.00000 -6.35968 0.00000 0.00000
11932 12528 12527 12526 3 1.78866 3.49154 0.53555 -5.81576 0.00000 0.00000
11932 12528 12527 12531 3 -1.26775 3.02085 1.74473 -3.49782 0.00000 0.00000
11937 11938 11945 11946 3 30.28798 -4.81160 -25.47638 0.00000 0.00000 0.00000 ; imides
11937 11954 11955 11956 3 33.20422 0.00000 -33.20422 0.00000 0.00000 0.00000 ; methylguanidinium ion
11937 11954 11955 11959 3 20.50160 0.00000 -20.50160 0.00000 0.00000 0.00000 ; imides
11938 11937 11954 11953 3 30.28798 -4.81160 -25.47638 0.00000 0.00000 0.00000 ; imides
11938 11937 11954 11955 3 33.20422 0.00000 -33.20422 0.00000 0.00000 0.00000 ; methylguanidinium ion
11938 11945 11946 11947 3 33.20422 0.00000 -33.20422 0.00000 0.00000 0.00000 ; methylguanidinium ion
11938 11945 11946 11953 3 30.28798 -4.81160 -25.47638 0.00000 0.00000 0.00000 ; imides
11939 11938 11945 11946 3 33.20422 0.00000 -33.20422 0.00000 0.00000 0.00000 ; methylguanidinium ion
11940 2651 2650 2649 3 1.58992 4.76976 0.00000 -6.35968 0.00000 0.00000
11940 2651 2650 2652 3 1.58992 4.76976 0.00000 -6.35968 0.00000 0.00000
11940 2651 2650 2653 3 1.58992 4.76976 0.00000 -6.35968 0.00000 0.00000
11945 11938 11939 11940 3 33.20422 0.00000 -33.20422 0.00000 0.00000 0.00000 ; methylguanidinium ion
11945 11938 11939 11943 3 20.50160 0.00000 -20.50160 0.00000 0.00000 0.00000 ; imides
11945 11946 11953 11954 3 30.28798 -4.81160 -25.47638 0.00000 0.00000 0.00000 ; imides
11946 11953 11954 11937 3 30.28798 -4.81160 -25.47638 0.00000 0.00000 0.00000 ; imides
11946 11953 11954 11955 3 33.20422 0.00000 -33.20422 0.00000 0.00000 0.00000 ; methylguanidinium ion
11947 11946 11953 11954 3 33.20422 0.00000 -33.20422 0.00000 0.00000 0.00000 ; methylguanidinium ion
11948 2560 2559 2558 3 1.58992 4.76976 0.00000 -6.35968 0.00000 0.00000
11948 2560 2559 2561 3 1.58992 4.76976 0.00000 -6.35968 0.00000 0.00000
11948 2560 2559 2562 3 1.58992 4.76976 0.00000 -6.35968 0.00000 0.00000
11953 11946 11947 11948 3 33.20422 0.00000 -33.20422 0.00000 0.00000 0.00000 ; methylguanidinium ion
11953 11946 11947 11951 3 20.50160 0.00000 -20.50160 0.00000 0.00000 0.00000 ; imides
11954 11937 11938 11939 3 33.20422 0.00000 -33.20422 0.00000 0.00000 0.00000 ; methylguanidinium ion
11954 11937 11938 11945 3 30.28798 -4.81160 -25.47638 0.00000 0.00000 0.00000 ; imides
11956 9123 9122 9121 3 1.58992 4.76976 0.00000 -6.35968 0.00000 0.00000
11956 9123 9122 9124 3 1.58992 4.76976 0.00000 -6.35968 0.00000 0.00000
11956 9123 9122 9125 3 1.58992 4.76976 0.00000 -6.35968 0.00000 0.00000
11961 11962 11969 11970 3 30.28798 -4.81160 -25.47638 0.00000 0.00000 0.00000 ; imides
11961 11979 11980 11981 3 33.20422 0.00000 -33.20422 0.00000 0.00000 0.00000 ; methylguanidinium ion
11961 11979 11980 11984 3 20.50160 0.00000 -20.50160 0.00000 0.00000 0.00000 ; imides
11962 11961 11979 11978 3 30.28798 -4.81160 -25.47638 0.00000 0.00000 0.00000 ; imides
11962 11961 11979 11980 3 33.20422 0.00000 -33.20422 0.00000 0.00000 0.00000 ; methylguanidinium ion
11962 11969 11970 11971 3 33.20422 0.00000 -33.20422 0.00000 0.00000 0.00000 ; methylguanidinium ion
11962 11969 11970 11978 3 30.28798 -4.81160 -25.47638 0.00000 0.00000 0.00000 ; imides
11963 11962 11969 11970 3 33.20422 0.00000 -33.20422 0.00000 0.00000 0.00000 ; methylguanidinium ion
11964 8683 8682 8681 3 1.58992 4.76976 0.00000 -6.35968 0.00000 0.00000
11964 8683 8682 8684 3 1.58992 4.76976 0.00000 -6.35968 0.00000 0.00000
11964 8683 8682 8685 3 1.58992 4.76976 0.00000 -6.35968 0.00000 0.00000
11969 11962 11963 11964 3 33.20422 0.00000 -33.20422 0.00000 0.00000 0.00000 ; methylguanidinium ion
11969 11962 11963 11967 3 20.50160 0.00000 -20.50160 0.00000 0.00000 0.00000 ; imides
11969 11970 11978 11979 3 30.28798 -4.81160 -25.47638 0.00000 0.00000 0.00000 ; imides
11970 11978 11979 11961 3 30.28798 -4.81160 -25.47638 0.00000 0.00000 0.00000 ; imides
11970 11978 11979 11980 3 33.20422 0.00000 -33.20422 0.00000 0.00000 0.00000 ; methylguanidinium ion
11971 11970 11978 11979 3 33.20422 0.00000 -33.20422 0.00000 0.00000 0.00000 ; methylguanidinium ion
11972 11973 12232 12231 3 1.58992 4.76976 0.00000 -6.35968 0.00000 0.00000
11972 11973 12232 12233 3 1.58992 4.76976 0.00000 -6.35968 0.00000 0.00000
11972 11973 12232 12234 3 1.58992 4.76976 0.00000 -6.35968 0.00000 0.00000
11973 12232 12231 12230 3 1.78866 3.49154 0.53555 -5.81576 0.00000 0.00000
11973 12232 12231 12235 3 -1.26775 3.02085 1.74473 -3.49782 0.00000 0.00000
11978 11970 11971 11972 3 33.20422 0.00000 -33.20422 0.00000 0.00000 0.00000 ; methylguanidinium ion
11978 11970 11971 11976 3 20.50160 0.00000 -20.50160 0.00000 0.00000 0.00000 ; imides
11979 11961 11962 11963 3 33.20422 0.00000 -33.20422 0.00000 0.00000 0.00000 ; methylguanidinium ion
11979 11961 11962 11969 3 30.28798 -4.81160 -25.47638 0.00000 0.00000 0.00000 ; imides
11981 4206 4205 4204 3 1.58992 4.76976 0.00000 -6.35968 0.00000 0.00000
11981 4206 4205 4207 3 1.58992 4.76976 0.00000 -6.35968 0.00000 0.00000
11981 4206 4205 4208 3 1.58992 4.76976 0.00000 -6.35968 0.00000 0.00000
11986 11987 11996 11997 3 30.28798 -4.81160 -25.47638 0.00000 0.00000 0.00000 ; imides
11986 12005 12006 12007 3 33.20422 0.00000 -33.20422 0.00000 0.00000 0.00000 ; methylguanidinium ion
11986 12005 12006 12012 3 20.50160 0.00000 -20.50160 0.00000 0.00000 0.00000 ; imides
11987 11986 12005 12004 3 30.28798 -4.81160 -25.47638 0.00000 0.00000 0.00000 ; imides
11987 11986 12005 12006 3 33.20422 0.00000 -33.20422 0.00000 0.00000 0.00000 ; methylguanidinium ion
11987 11996 11997 11998 3 33.20422 0.00000 -33.20422 0.00000 0.00000 0.00000 ; methylguanidinium ion
11987 11996 11997 12004 3 30.28798 -4.81160 -25.47638 0.00000 0.00000 0.00000 ; imides
11988 11987 11996 11997 3 33.20422 0.00000 -33.20422 0.00000 0.00000 0.00000 ; methylguanidinium ion
11996 11987 11988 11989 3 33.20422 0.00000 -33.20422 0.00000 0.00000 0.00000 ; methylguanidinium ion
11996 11987 11988 11994 3 20.50160 0.00000 -20.50160 0.00000 0.00000 0.00000 ; imides
11996 11997 12004 12005 3 30.28798 -4.81160 -25.47638 0.00000 0.00000 0.00000 ; imides
11997 12004 12005 11986 3 30.28798 -4.81160 -25.47638 0.00000 0.00000 0.00000 ; imides
11997 12004 12005 12006 3 33.20422 0.00000 -33.20422 0.00000 0.00000 0.00000 ; methylguanidinium ion
11998 11997 12004 12005 3 33.20422 0.00000 -33.20422 0.00000 0.00000 0.00000 ; methylguanidinium ion
11999 7387 7386 7385 3 1.58992 4.76976 0.00000 -6.35968 0.00000 0.00000
11999 7387 7386 7388 3 1.58992 4.76976 0.00000 -6.35968 0.00000 0.00000
11999 7387 7386 7389 3 1.58992 4.76976 0.00000 -6.35968 0.00000 0.00000
12004 11997 11998 11999 3 33.20422 0.00000 -33.20422 0.00000 0.00000 0.00000 ; methylguanidinium ion
12004 11997 11998 12002 3 20.50160 0.00000 -20.50160 0.00000 0.00000 0.00000 ; imides
12005 11986 11987 11988 3 33.20422 0.00000 -33.20422 0.00000 0.00000 0.00000 ; methylguanidinium ion
12005 11986 11987 11996 3 30.28798 -4.81160 -25.47638 0.00000 0.00000 0.00000 ; imides
12014 12015 12022 12023 3 30.28798 -4.81160 -25.47638 0.00000 0.00000 0.00000 ; imides
12014 12031 12032 12033 3 33.20422 0.00000 -33.20422 0.00000 0.00000 0.00000 ; methylguanidinium ion
12014 12031 12032 12036 3 20.50160 0.00000 -20.50160 0.00000 0.00000 0.00000 ; imides
12015 12014 12031 12030 3 30.28798 -4.81160 -25.47638 0.00000 0.00000 0.00000 ; imides
12015 12014 12031 12032 3 33.20422 0.00000 -33.20422 0.00000 0.00000 0.00000 ; methylguanidinium ion
12015 12022 12023 12024 3 33.20422 0.00000 -33.20422 0.00000 0.00000 0.00000 ; methylguanidinium ion
12015 12022 12023 12030 3 30.28798 -4.81160 -25.47638 0.00000 0.00000 0.00000 ; imides
12016 12015 12022 12023 3 33.20422 0.00000 -33.20422 0.00000 0.00000 0.00000 ; methylguanidinium ion
12017 11858 11857 11856 3 1.58992 4.76976 0.00000 -6.35968 0.00000 0.00000
12017 11858 11857 11859 3 1.58992 4.76976 0.00000 -6.35968 0.00000 0.00000
12017 11858 11857 11860 3 1.58992 4.76976 0.00000 -6.35968 0.00000 0.00000
12022 12015 12016 12017 3 33.20422 0.00000 -33.20422 0.00000 0.00000 0.00000 ; methylguanidinium ion
12022 12015 12016 12020 3 20.50160 0.00000 -20.50160 0.00000 0.00000 0.00000 ; imides
12022 12023 12030 12031 3 30.28798 -4.81160 -25.47638 0.00000 0.00000 0.00000 ; imides
12023 12030 12031 12014 3 30.28798 -4.81160 -25.47638 0.00000 0.00000 0.00000 ; imides
12023 12030 12031 12032 3 33.20422 0.00000 -33.20422 0.00000 0.00000 0.00000 ; methylguanidinium ion
12024 12023 12030 12031 3 33.20422 0.00000 -33.20422 0.00000 0.00000 0.00000 ; methylguanidinium ion
12025 9519 9518 9517 3 1.58992 4.76976 0.00000 -6.35968 0.00000 0.00000
12025 9519 9518 9520 3 1.58992 4.76976 0.00000 -6.35968 0.00000 0.00000
12025 9519 9518 9521 3 1.58992 4.76976 0.00000 -6.35968 0.00000 0.00000
12030 12023 12024 12025 3 33.20422 0.00000 -33.20422 0.00000 0.00000 0.00000 ; methylguanidinium ion
12030 12023 12024 12028 3 20.50160 0.00000 -20.50160 0.00000 0.00000 0.00000 ; imides
12031 12014 12015 12016 3 33.20422 0.00000 -33.20422 0.00000 0.00000 0.00000 ; methylguanidinium ion
12031 12014 12015 12022 3 30.28798 -4.81160 -25.47638 0.00000 0.00000 0.00000 ; imides
12033 10309 10308 10307 3 1.58992 4.76976 0.00000 -6.35968 0.00000 0.00000
12033 10309 10308 10310 3 1.58992 4.76976 0.00000 -6.35968 0.00000 0.00000
12033 10309 10308 10311 3 1.58992 4.76976 0.00000 -6.35968 0.00000 0.00000
12038 12039 12046 12047 3 30.28798 -4.81160 -25.47638 0.00000 0.00000 0.00000 ; imides
12038 12055 12056 12057 3 33.20422 0.00000 -33.20422 0.00000 0.00000 0.00000 ; methylguanidinium ion
12038 12055 12056 12060 3 20.50160 0.00000 -20.50160 0.00000 0.00000 0.00000 ; imides
12039 12038 12055 12054 3 30.28798 -4.81160 -25.47638 0.00000 0.00000 0.00000 ; imides
12039 12038 12055 12056 3 33.20422 0.00000 -33.20422 0.00000 0.00000 0.00000 ; methylguanidinium ion
12039 12046 12047 12048 3 33.20422 0.00000 -33.20422 0.00000 0.00000 0.00000 ; methylguanidinium ion
12039 12046 12047 12054 3 30.28798 -4.81160 -25.47638 0.00000 0.00000 0.00000 ; imides
12040 12039 12046 12047 3 33.20422 0.00000 -33.20422 0.00000 0.00000 0.00000 ; methylguanidinium ion
12041 7713 7712 7711 3 1.58992 4.76976 0.00000 -6.35968 0.00000 0.00000
12041 7713 7712 7714 3 1.58992 4.76976 0.00000 -6.35968 0.00000 0.00000
12041 7713 7712 7715 3 1.58992 4.76976 0.00000 -6.35968 0.00000 0.00000
12046 12039 12040 12041 3 33.20422 0.00000 -33.20422 0.00000 0.00000 0.00000 ; methylguanidinium ion
12046 12039 12040 12044 3 20.50160 0.00000 -20.50160 0.00000 0.00000 0.00000 ; imides
12046 12047 12054 12055 3 30.28798 -4.81160 -25.47638 0.00000 0.00000 0.00000 ; imides
12047 12054 12055 12038 3 30.28798 -4.81160 -25.47638 0.00000 0.00000 0.00000 ; imides
12047 12054 12055 12056 3 33.20422 0.00000 -33.20422 0.00000 0.00000 0.00000 ; methylguanidinium ion
12048 12047 12054 12055 3 33.20422 0.00000 -33.20422 0.00000 0.00000 0.00000 ; methylguanidinium ion
12049 3727 3726 3725 3 1.58992 4.76976 0.00000 -6.35968 0.00000 0.00000
12049 3727 3726 3728 3 1.58992 4.76976 0.00000 -6.35968 0.00000 0.00000
12049 3727 3726 3729 3 1.58992 4.76976 0.00000 -6.35968 0.00000 0.00000
12054 12047 12048 12049 3 33.20422 0.00000 -33.20422 0.00000 0.00000 0.00000 ; methylguanidinium ion
12054 12047 12048 12052 3 20.50160 0.00000 -20.50160 0.00000 0.00000 0.00000 ; imides
12055 12038 12039 12040 3 33.20422 0.00000 -33.20422 0.00000 0.00000 0.00000 ; methylguanidinium ion
12055 12038 12039 12046 3 30.28798 -4.81160 -25.47638 0.00000 0.00000 0.00000 ; imides
12057 8491 8490 8489 3 1.58992 4.76976 0.00000 -6.35968 0.00000 0.00000
12057 8491 8490 8492 3 1.58992 4.76976 0.00000 -6.35968 0.00000 0.00000
12057 8491 8490 8493 3 1.58992 4.76976 0.00000 -6.35968 0.00000 0.00000
12062 12063 12072 12073 3 30.28798 -4.81160 -25.47638 0.00000 0.00000 0.00000 ; imides
12062 12081 12082 12083 3 33.20422 0.00000 -33.20422 0.00000 0.00000 0.00000 ; methylguanidinium ion
12062 12081 12082 12086 3 20.50160 0.00000 -20.50160 0.00000 0.00000 0.00000 ; imides
12063 12062 12081 12080 3 30.28798 -4.81160 -25.47638 0.00000 0.00000 0.00000 ; imides
12063 12062 12081 12082 3 33.20422 0.00000 -33.20422 0.00000 0.00000 0.00000 ; methylguanidinium ion
12063 12072 12073 12074 3 33.20422 0.00000 -33.20422 0.00000 0.00000 0.00000 ; methylguanidinium ion
12063 12072 12073 12080 3 30.28798 -4.81160 -25.47638 0.00000 0.00000 0.00000 ; imides
12064 12063 12072 12073 3 33.20422 0.00000 -33.20422 0.00000 0.00000 0.00000 ; methylguanidinium ion
12072 12063 12064 12065 3 33.20422 0.00000 -33.20422 0.00000 0.00000 0.00000 ; methylguanidinium ion
12072 12063 12064 12070 3 20.50160 0.00000 -20.50160 0.00000 0.00000 0.00000 ; imides
12072 12073 12080 12081 3 30.28798 -4.81160 -25.47638 0.00000 0.00000 0.00000 ; imides
12073 12080 12081 12062 3 30.28798 -4.81160 -25.47638 0.00000 0.00000 0.00000 ; imides
12073 12080 12081 12082 3 33.20422 0.00000 -33.20422 0.00000 0.00000 0.00000 ; methylguanidinium ion
12074 12073 12080 12081 3 33.20422 0.00000 -33.20422 0.00000 0.00000 0.00000 ; methylguanidinium ion
12075 4298 4297 4296 3 1.58992 4.76976 0.00000 -6.35968 0.00000 0.00000
12075 4298 4297 4299 3 1.58992 4.76976 0.00000 -6.35968 0.00000 0.00000
12075 4298 4297 4300 3 1.58992 4.76976 0.00000 -6.35968 0.00000 0.00000
12080 12073 12074 12075 3 33.20422 0.00000 -33.20422 0.00000 0.00000 0.00000 ; methylguanidinium ion
12080 12073 12074 12078 3 20.50160 0.00000 -20.50160 0.00000 0.00000 0.00000 ; imides
12081 12062 12063 12064 3 33.20422 0.00000 -33.20422 0.00000 0.00000 0.00000 ; methylguanidinium ion
12081 12062 12063 12072 3 30.28798 -4.81160 -25.47638 0.00000 0.00000 0.00000 ; imides
12083 9510 9509 9508 3 1.58992 4.76976 0.00000 -6.35968 0.00000 0.00000
12083 9510 9509 9511 3 1.58992 4.76976 0.00000 -6.35968 0.00000 0.00000
12083 9510 9509 9512 3 1.58992 4.76976 0.00000 -6.35968 0.00000 0.00000
12088 12089 12096 12097 3 30.28798 -4.81160 -25.47638 0.00000 0.00000 0.00000 ; imides
12088 12105 12106 12107 3 33.20422 0.00000 -33.20422 0.00000 0.00000 0.00000 ; methylguanidinium ion
12088 12105 12106 12110 3 20.50160 0.00000 -20.50160 0.00000 0.00000 0.00000 ; imides
12089 12088 12105 12104 3 30.28798 -4.81160 -25.47638 0.00000 0.00000 0.00000 ; imides
12089 12088 12105 12106 3 33.20422 0.00000 -33.20422 0.00000 0.00000 0.00000 ; methylguanidinium ion
12089 12096 12097 12098 3 33.20422 0.00000 -33.20422 0.00000 0.00000 0.00000 ; methylguanidinium ion
12089 12096 12097 12104 3 30.28798 -4.81160 -25.47638 0.00000 0.00000 0.00000 ; imides
12090 12089 12096 12097 3 33.20422 0.00000 -33.20422 0.00000 0.00000 0.00000 ; methylguanidinium ion
12091 4020 4019 4018 3 1.58992 4.76976 0.00000 -6.35968 0.00000 0.00000
12091 4020 4019 4021 3 1.58992 4.76976 0.00000 -6.35968 0.00000 0.00000
12091 4020 4019 4022 3 1.58992 4.76976 0.00000 -6.35968 0.00000 0.00000
12096 12089 12090 12091 3 33.20422 0.00000 -33.20422 0.00000 0.00000 0.00000 ; methylguanidinium ion
12096 12089 12090 12094 3 20.50160 0.00000 -20.50160 0.00000 0.00000 0.00000 ; imides
12096 12097 12104 12105 3 30.28798 -4.81160 -25.47638 0.00000 0.00000 0.00000 ; imides
12097 12104 12105 12088 3 30.28798 -4.81160 -25.47638 0.00000 0.00000 0.00000 ; imides
12097 12104 12105 12106 3 33.20422 0.00000 -33.20422 0.00000 0.00000 0.00000 ; methylguanidinium ion
12098 12097 12104 12105 3 33.20422 0.00000 -33.20422 0.00000 0.00000 0.00000 ; methylguanidinium ion
12099 2059 2058 2057 3 1.58992 4.76976 0.00000 -6.35968 0.00000 0.00000
12099 2059 2058 2060 3 1.58992 4.76976 0.00000 -6.35968 0.00000 0.00000
12099 2059 2058 2061 3 1.58992 4.76976 0.00000 -6.35968 0.00000 0.00000
12104 12097 12098 12099 3 33.20422 0.00000 -33.20422 0.00000 0.00000 0.00000 ; methylguanidinium ion
12104 12097 12098 12102 3 20.50160 0.00000 -20.50160 0.00000 0.00000 0.00000 ; imides
12105 12088 12089 12090 3 33.20422 0.00000 -33.20422 0.00000 0.00000 0.00000 ; methylguanidinium ion
12105 12088 12089 12096 3 30.28798 -4.81160 -25.47638 0.00000 0.00000 0.00000 ; imides
12107 5476 5475 5474 3 1.58992 4.76976 0.00000 -6.35968 0.00000 0.00000
12107 5476 5475 5477 3 1.58992 4.76976 0.00000 -6.35968 0.00000 0.00000
12107 5476 5475 5478 3 1.58992 4.76976 0.00000 -6.35968 0.00000 0.00000
12112 12113 12120 12121 3 30.28798 -4.81160 -25.47638 0.00000 0.00000 0.00000 ; imides
12112 12129 12130 12131 3 33.20422 0.00000 -33.20422 0.00000 0.00000 0.00000 ; methylguanidinium ion
12112 12129 12130 12134 3 20.50160 0.00000 -20.50160 0.00000 0.00000 0.00000 ; imides
12113 12112 12129 12128 3 30.28798 -4.81160 -25.47638 0.00000 0.00000 0.00000 ; imides
12113 12112 12129 12130 3 33.20422 0.00000 -33.20422 0.00000 0.00000 0.00000 ; methylguanidinium ion
12113 12120 12121 12122 3 33.20422 0.00000 -33.20422 0.00000 0.00000 0.00000 ; methylguanidinium ion
12113 12120 12121 12128 3 30.28798 -4.81160 -25.47638 0.00000 0.00000 0.00000 ; imides
12114 12113 12120 12121 3 33.20422 0.00000 -33.20422 0.00000 0.00000 0.00000 ; methylguanidinium ion
12115 2201 2200 2199 3 1.58992 4.76976 0.00000 -6.35968 0.00000 0.00000
12115 2201 2200 2202 3 1.58992 4.76976 0.00000 -6.35968 0.00000 0.00000
12115 2201 2200 2203 3 1.58992 4.76976 0.00000 -6.35968 0.00000 0.00000
12120 12113 12114 12115 3 33.20422 0.00000 -33.20422 0.00000 0.00000 0.00000 ; methylguanidinium ion
12120 12113 12114 12118 3 20.50160 0.00000 -20.50160 0.00000 0.00000 0.00000 ; imides
12120 12121 12128 12129 3 30.28798 -4.81160 -25.47638 0.00000 0.00000 0.00000 ; imides
12121 12128 12129 12112 3 30.28798 -4.81160 -25.47638 0.00000 0.00000 0.00000 ; imides
12121 12128 12129 12130 3 33.20422 0.00000 -33.20422 0.00000 0.00000 0.00000 ; methylguanidinium ion
12122 12121 12128 12129 3 33.20422 0.00000 -33.20422 0.00000 0.00000 0.00000 ; methylguanidinium ion
12123 6127 6126 6125 3 1.58992 4.76976 0.00000 -6.35968 0.00000 0.00000
12123 6127 6126 6128 3 1.58992 4.76976 0.00000 -6.35968 0.00000 0.00000
12123 6127 6126 6129 3 1.58992 4.76976 0.00000 -6.35968 0.00000 0.00000
12128 12121 12122 12123 3 33.20422 0.00000 -33.20422 0.00000 0.00000 0.00000 ; methylguanidinium ion
12128 12121 12122 12126 3 20.50160 0.00000 -20.50160 0.00000 0.00000 0.00000 ; imides
12129 12112 12113 12114 3 33.20422 0.00000 -33.20422 0.00000 0.00000 0.00000 ; methylguanidinium ion
12129 12112 12113 12120 3 30.28798 -4.81160 -25.47638 0.00000 0.00000 0.00000 ; imides
12131 5675 5674 5673 3 1.58992 4.76976 0.00000 -6.35968 0.00000 0.00000
12131 5675 5674 5676 3 1.58992 4.76976 0.00000 -6.35968 0.00000 0.00000
12131 5675 5674 5677 3 1.58992 4.76976 0.00000 -6.35968 0.00000 0.00000
12136 12137 12144 12145 3 30.28798 -4.81160 -25.47638 0.00000 0.00000 0.00000 ; imides
12136 12153 12154 12155 3 33.20422 0.00000 -33.20422 0.00000 0.00000 0.00000 ; methylguanidinium ion
12136 12153 12154 12158 3 20.50160 0.00000 -20.50160 0.00000 0.00000 0.00000 ; imides
12137 12136 12153 12152 3 30.28798 -4.81160 -25.47638 0.00000 0.00000 0.00000 ; imides
12137 12136 12153 12154 3 33.20422 0.00000 -33.20422 0.00000 0.00000 0.00000 ; methylguanidinium ion
12137 12144 12145 12146 3 33.20422 0.00000 -33.20422 0.00000 0.00000 0.00000 ; methylguanidinium ion
12137 12144 12145 12152 3 30.28798 -4.81160 -25.47638 0.00000 0.00000 0.00000 ; imides
12138 12137 12144 12145 3 33.20422 0.00000 -33.20422 0.00000 0.00000 0.00000 ; methylguanidinium ion
12139 1899 1898 1897 3 1.58992 4.76976 0.00000 -6.35968 0.00000 0.00000
12139 1899 1898 1900 3 1.58992 4.76976 0.00000 -6.35968 0.00000 0.00000
12139 1899 1898 1901 3 1.58992 4.76976 0.00000 -6.35968 0.00000 0.00000
12144 12137 12138 12139 3 33.20422 0.00000 -33.20422 0.00000 0.00000 0.00000 ; methylguanidinium ion
12144 12137 12138 12142 3 20.50160 0.00000 -20.50160 0.00000 0.00000 0.00000 ; imides
12144 12145 12152 12153 3 30.28798 -4.81160 -25.47638 0.00000 0.00000 0.00000 ; imides
12145 12152 12153 12136 3 30.28798 -4.81160 -25.47638 0.00000 0.00000 0.00000 ; imides
12145 12152 12153 12154 3 33.20422 0.00000 -33.20422 0.00000 0.00000 0.00000 ; methylguanidinium ion
12146 12145 12152 12153 3 33.20422 0.00000 -33.20422 0.00000 0.00000 0.00000 ; methylguanidinium ion
12147 11792 11791 11790 3 1.58992 4.76976 0.00000 -6.35968 0.00000 0.00000
12147 11792 11791 11793 3 1.58992 4.76976 0.00000 -6.35968 0.00000 0.00000
12147 11792 11791 11794 3 1.58992 4.76976 0.00000 -6.35968 0.00000 0.00000
12152 12145 12146 12147 3 33.20422 0.00000 -33.20422 0.00000 0.00000 0.00000 ; methylguanidinium ion
12152 12145 12146 12150 3 20.50160 0.00000 -20.50160 0.00000 0.00000 0.00000 ; imides
12153 12136 12137 12138 3 33.20422 0.00000 -33.20422 0.00000 0.00000 0.00000 ; methylguanidinium ion
12153 12136 12137 12144 3 30.28798 -4.81160 -25.47638 0.00000 0.00000 0.00000 ; imides
12155 11028 11027 11026 3 1.58992 4.76976 0.00000 -6.35968 0.00000 0.00000
12155 11028 11027 11029 3 1.58992 4.76976 0.00000 -6.35968 0.00000 0.00000
12155 11028 11027 11030 3 1.58992 4.76976 0.00000 -6.35968 0.00000 0.00000
12160 12161 12168 12169 3 30.28798 -4.81160 -25.47638 0.00000 0.00000 0.00000 ; imides
12160 12177 12178 12179 3 33.20422 0.00000 -33.20422 0.00000 0.00000 0.00000 ; methylguanidinium ion
12160 12177 12178 12182 3 20.50160 0.00000 -20.50160 0.00000 0.00000 0.00000 ; imides
12161 12160 12177 12176 3 30.28798 -4.81160 -25.47638 0.00000 0.00000 0.00000 ; imides
12161 12160 12177 12178 3 33.20422 0.00000 -33.20422 0.00000 0.00000 0.00000 ; methylguanidinium ion
12161 12168 12169 12170 3 33.20422 0.00000 -33.20422 0.00000 0.00000 0.00000 ; methylguanidinium ion
12161 12168 12169 12176 3 30.28798 -4.81160 -25.47638 0.00000 0.00000 0.00000 ; imides
12162 12161 12168 12169 3 33.20422 0.00000 -33.20422 0.00000 0.00000 0.00000 ; methylguanidinium ion
12163 8271 8270 8269 3 1.58992 4.76976 0.00000 -6.35968 0.00000 0.00000
12163 8271 8270 8272 3 1.58992 4.76976 0.00000 -6.35968 0.00000 0.00000
12163 8271 8270 8273 3 1.58992 4.76976 0.00000 -6.35968 0.00000 0.00000
12168 12161 12162 12163 3 33.20422 0.00000 -33.20422 0.00000 0.00000 0.00000 ; methylguanidinium ion
12168 12161 12162 12166 3 20.50160 0.00000 -20.50160 0.00000 0.00000 0.00000 ; imides
12168 12169 12176 12177 3 30.28798 -4.81160 -25.47638 0.00000 0.00000 0.00000 ; imides
12169 12176 12177 12160 3 30.28798 -4.81160 -25.47638 0.00000 0.00000 0.00000 ; imides
12169 12176 12177 12178 3 33.20422 0.00000 -33.20422 0.00000 0.00000 0.00000 ; methylguanidinium ion
12170 12169 12176 12177 3 33.20422 0.00000 -33.20422 0.00000 0.00000 0.00000 ; methylguanidinium ion
12171 1809 1808 1807 3 1.58992 4.76976 0.00000 -6.35968 0.00000 0.00000
12171 1809 1808 1810 3 1.58992 4.76976 0.00000 -6.35968 0.00000 0.00000
12171 1809 1808 1811 3 1.58992 4.76976 0.00000 -6.35968 0.00000 0.00000
12176 12169 12170 12171 3 33.20422 0.00000 -33.20422 0.00000 0.00000 0.00000 ; methylguanidinium ion
12176 12169 12170 12174 3 20.50160 0.00000 -20.50160 0.00000 0.00000 0.00000 ; imides
12177 12160 12161 12162 3 33.20422 0.00000 -33.20422 0.00000 0.00000 0.00000 ; methylguanidinium ion
12177 12160 12161 12168 3 30.28798 -4.81160 -25.47638 0.00000 0.00000 0.00000 ; imides
12179 5791 5790 5789 3 1.58992 4.76976 0.00000 -6.35968 0.00000 0.00000
12179 5791 5790 5792 3 1.58992 4.76976 0.00000 -6.35968 0.00000 0.00000
12179 5791 5790 5793 3 1.58992 4.76976 0.00000 -6.35968 0.00000 0.00000
12184 12185 12194 12195 3 30.28798 -4.81160 -25.47638 0.00000 0.00000 0.00000 ; imides
12184 12204 12205 12206 3 33.20422 0.00000 -33.20422 0.00000 0.00000 0.00000 ; methylguanidinium ion
12184 12204 12205 12211 3 20.50160 0.00000 -20.50160 0.00000 0.00000 0.00000 ; imides
12185 12184 12204 12203 3 30.28798 -4.81160 -25.47638 0.00000 0.00000 0.00000 ; imides
12185 12184 12204 12205 3 33.20422 0.00000 -33.20422 0.00000 0.00000 0.00000 ; methylguanidinium ion
12185 12194 12195 12196 3 33.20422 0.00000 -33.20422 0.00000 0.00000 0.00000 ; methylguanidinium ion
12185 12194 12195 12203 3 30.28798 -4.81160 -25.47638 0.00000 0.00000 0.00000 ; imides
12186 12185 12194 12195 3 33.20422 0.00000 -33.20422 0.00000 0.00000 0.00000 ; methylguanidinium ion
12194 12185 12186 12187 3 33.20422 0.00000 -33.20422 0.00000 0.00000 0.00000 ; methylguanidinium ion
12194 12185 12186 12192 3 20.50160 0.00000 -20.50160 0.00000 0.00000 0.00000 ; imides
12194 12195 12203 12204 3 30.28798 -4.81160 -25.47638 0.00000 0.00000 0.00000 ; imides
12195 12203 12204 12184 3 30.28798 -4.81160 -25.47638 0.00000 0.00000 0.00000 ; imides
12195 12203 12204 12205 3 33.20422 0.00000 -33.20422 0.00000 0.00000 0.00000 ; methylguanidinium ion
12196 12195 12203 12204 3 33.20422 0.00000 -33.20422 0.00000 0.00000 0.00000 ; methylguanidinium ion
12197 12198 12410 12409 3 1.58992 4.76976 0.00000 -6.35968 0.00000 0.00000
12197 12198 12410 12411 3 1.58992 4.76976 0.00000 -6.35968 0.00000 0.00000
12197 12198 12410 12412 3 1.58992 4.76976 0.00000 -6.35968 0.00000 0.00000
12198 12410 12409 12408 3 1.78866 3.49154 0.53555 -5.81576 0.00000 0.00000
12198 12410 12409 12413 3 -1.26775 3.02085 1.74473 -3.49782 0.00000 0.00000
12203 12195 12196 12197 3 33.20422 0.00000 -33.20422 0.00000 0.00000 0.00000 ; methylguanidinium ion
12203 12195 12196 12201 3 20.50160 0.00000 -20.50160 0.00000 0.00000 0.00000 ; imides
12204 12184 12185 12186 3 33.20422 0.00000 -33.20422 0.00000 0.00000 0.00000 ; methylguanidinium ion
12204 12184 12185 12194 3 30.28798 -4.81160 -25.47638 0.00000 0.00000 0.00000 ; imides
12213 12214 12221 12222 3 30.28798 -4.81160 -25.47638 0.00000 0.00000 0.00000 ; imides
12213 12230 12231 12232 3 33.20422 0.00000 -33.20422 0.00000 0.00000 0.00000 ; methylguanidinium ion
12213 12230 12231 12235 3 20.50160 0.00000 -20.50160 0.00000 0.00000 0.00000 ; imides
12214 12213 12230 12229 3 30.28798 -4.81160 -25.47638 0.00000 0.00000 0.00000 ; imides
12214 12213 12230 12231 3 33.20422 0.00000 -33.20422 0.00000 0.00000 0.00000 ; methylguanidinium ion
12214 12221 12222 12223 3 33.20422 0.00000 -33.20422 0.00000 0.00000 0.00000 ; methylguanidinium ion
12214 12221 12222 12229 3 30.28798 -4.81160 -25.47638 0.00000 0.00000 0.00000 ; imides
12215 12214 12221 12222 3 33.20422 0.00000 -33.20422 0.00000 0.00000 0.00000 ; methylguanidinium ion
12216 2247 2246 2245 3 1.58992 4.76976 0.00000 -6.35968 0.00000 0.00000
12216 2247 2246 2248 3 1.58992 4.76976 0.00000 -6.35968 0.00000 0.00000
12216 2247 2246 2249 3 1.58992 4.76976 0.00000 -6.35968 0.00000 0.00000
12221 12214 12215 12216 3 33.20422 0.00000 -33.20422 0.00000 0.00000 0.00000 ; methylguanidinium ion
12221 12214 12215 12219 3 20.50160 0.00000 -20.50160 0.00000 0.00000 0.00000 ; imides
12221 12222 12229 12230 3 30.28798 -4.81160 -25.47638 0.00000 0.00000 0.00000 ; imides
12222 12229 12230 12213 3 30.28798 -4.81160 -25.47638 0.00000 0.00000 0.00000 ; imides
12222 12229 12230 12231 3 33.20422 0.00000 -33.20422 0.00000 0.00000 0.00000 ; methylguanidinium ion
12223 12222 12229 12230 3 33.20422 0.00000 -33.20422 0.00000 0.00000 0.00000 ; methylguanidinium ion
12224 9913 9912 9911 3 1.58992 4.76976 0.00000 -6.35968 0.00000 0.00000
12224 9913 9912 9914 3 1.58992 4.76976 0.00000 -6.35968 0.00000 0.00000
12224 9913 9912 9915 3 1.58992 4.76976 0.00000 -6.35968 0.00000 0.00000
12229 12222 12223 12224 3 33.20422 0.00000 -33.20422 0.00000 0.00000 0.00000 ; methylguanidinium ion
12229 12222 12223 12227 3 20.50160 0.00000 -20.50160 0.00000 0.00000 0.00000 ; imides
12230 12213 12214 12215 3 33.20422 0.00000 -33.20422 0.00000 0.00000 0.00000 ; methylguanidinium ion
12230 12213 12214 12221 3 30.28798 -4.81160 -25.47638 0.00000 0.00000 0.00000 ; imides
12232 11973 11972 11971 3 1.58992 4.76976 0.00000 -6.35968 0.00000 0.00000
12232 11973 11972 11974 3 1.58992 4.76976 0.00000 -6.35968 0.00000 0.00000
12232 11973 11972 11975 3 1.58992 4.76976 0.00000 -6.35968 0.00000 0.00000
12237 12238 12247 12248 3 30.28798 -4.81160 -25.47638 0.00000 0.00000 0.00000 ; imides
12237 12256 12257 12258 3 33.20422 0.00000 -33.20422 0.00000 0.00000 0.00000 ; methylguanidinium ion
12237 12256 12257 12261 3 20.50160 0.00000 -20.50160 0.00000 0.00000 0.00000 ; imides
12238 12237 12256 12255 3 30.28798 -4.81160 -25.47638 0.00000 0.00000 0.00000 ; imides
12238 12237 12256 12257 3 33.20422 0.00000 -33.20422 0.00000 0.00000 0.00000 ; methylguanidinium ion
12238 12247 12248 12249 3 33.20422 0.00000 -33.20422 0.00000 0.00000 0.00000 ; methylguanidinium ion
12238 12247 12248 12255 3 30.28798 -4.81160 -25.47638 0.00000 0.00000 0.00000 ; imides
12239 12238 12247 12248 3 33.20422 0.00000 -33.20422 0.00000 0.00000 0.00000 ; methylguanidinium ion
12247 12238 12239 12240 3 33.20422 0.00000 -33.20422 0.00000 0.00000 0.00000 ; methylguanidinium ion
12247 12238 12239 12245 3 20.50160 0.00000 -20.50160 0.00000 0.00000 0.00000 ; imides
12247 12248 12255 12256 3 30.28798 -4.81160 -25.47638 0.00000 0.00000 0.00000 ; imides
12248 12255 12256 12237 3 30.28798 -4.81160 -25.47638 0.00000 0.00000 0.00000 ; imides
12248 12255 12256 12257 3 33.20422 0.00000 -33.20422 0.00000 0.00000 0.00000 ; methylguanidinium ion
12249 12248 12255 12256 3 33.20422 0.00000 -33.20422 0.00000 0.00000 0.00000 ; methylguanidinium ion
12250 9790 9789 9788 3 1.58992 4.76976 0.00000 -6.35968 0.00000 0.00000
12250 9790 9789 9791 3 1.58992 4.76976 0.00000 -6.35968 0.00000 0.00000
12250 9790 9789 9792 3 1.58992 4.76976 0.00000 -6.35968 0.00000 0.00000
12255 12248 12249 12250 3 33.20422 0.00000 -33.20422 0.00000 0.00000 0.00000 ; methylguanidinium ion
12255 12248 12249 12253 3 20.50160 0.00000 -20.50160 0.00000 0.00000 0.00000 ; imides
12256 12237 12238 12239 3 33.20422 0.00000 -33.20422 0.00000 0.00000 0.00000 ; methylguanidinium ion
12256 12237 12238 12247 3 30.28798 -4.81160 -25.47638 0.00000 0.00000 0.00000 ; imides
12258 11560 11559 11558 3 1.58992 4.76976 0.00000 -6.35968 0.00000 0.00000
12258 11560 11559 11561 3 1.58992 4.76976 0.00000 -6.35968 0.00000 0.00000
12258 11560 11559 11562 3 1.58992 4.76976 0.00000 -6.35968 0.00000 0.00000
12263 12264 12271 12272 3 30.28798 -4.81160 -25.47638 0.00000 0.00000 0.00000 ; imides
12263 12280 12281 12282 3 33.20422 0.00000 -33.20422 0.00000 0.00000 0.00000 ; methylguanidinium ion
12263 12280 12281 12285 3 20.50160 0.00000 -20.50160 0.00000 0.00000 0.00000 ; imides
12264 12263 12280 12279 3 30.28798 -4.81160 -25.47638 0.00000 0.00000 0.00000 ; imides
12264 12263 12280 12281 3 33.20422 0.00000 -33.20422 0.00000 0.00000 0.00000 ; methylguanidinium ion
12264 12271 12272 12273 3 33.20422 0.00000 -33.20422 0.00000 0.00000 0.00000 ; methylguanidinium ion
12264 12271 12272 12279 3 30.28798 -4.81160 -25.47638 0.00000 0.00000 0.00000 ; imides
12265 12264 12271 12272 3 33.20422 0.00000 -33.20422 0.00000 0.00000 0.00000 ; methylguanidinium ion
12266 3282 3281 3280 3 1.58992 4.76976 0.00000 -6.35968 0.00000 0.00000
12266 3282 3281 3283 3 1.58992 4.76976 0.00000 -6.35968 0.00000 0.00000
12266 3282 3281 3284 3 1.58992 4.76976 0.00000 -6.35968 0.00000 0.00000
12271 12264 12265 12266 3 33.20422 0.00000 -33.20422 0.00000 0.00000 0.00000 ; methylguanidinium ion
12271 12264 12265 12269 3 20.50160 0.00000 -20.50160 0.00000 0.00000 0.00000 ; imides
12271 12272 12279 12280 3 30.28798 -4.81160 -25.47638 0.00000 0.00000 0.00000 ; imides
12272 12279 12280 12263 3 30.28798 -4.81160 -25.47638 0.00000 0.00000 0.00000 ; imides
12272 12279 12280 12281 3 33.20422 0.00000 -33.20422 0.00000 0.00000 0.00000 ; methylguanidinium ion
12273 12272 12279 12280 3 33.20422 0.00000 -33.20422 0.00000 0.00000 0.00000 ; methylguanidinium ion
12274 1890 1889 1888 3 1.58992 4.76976 0.00000 -6.35968 0.00000 0.00000
12274 1890 1889 1891 3 1.58992 4.76976 0.00000 -6.35968 0.00000 0.00000
12274 1890 1889 1892 3 1.58992 4.76976 0.00000 -6.35968 0.00000 0.00000
12279 12272 12273 12274 3 33.20422 0.00000 -33.20422 0.00000 0.00000 0.00000 ; methylguanidinium ion
12279 12272 12273 12277 3 20.50160 0.00000 -20.50160 0.00000 0.00000 0.00000 ; imides
12280 12263 12264 12265 3 33.20422 0.00000 -33.20422 0.00000 0.00000 0.00000 ; methylguanidinium ion
12280 12263 12264 12271 3 30.28798 -4.81160 -25.47638 0.00000 0.00000 0.00000 ; imides
12282 2454 2453 2452 3 1.58992 4.76976 0.00000 -6.35968 0.00000 0.00000
12282 2454 2453 2455 3 1.58992 4.76976 0.00000 -6.35968 0.00000 0.00000
12282 2454 2453 2456 3 1.58992 4.76976 0.00000 -6.35968 0.00000 0.00000
12287 12288 12295 12296 3 30.28798 -4.81160 -25.47638 0.00000 0.00000 0.00000 ; imides
12287 12304 12305 12306 3 33.20422 0.00000 -33.20422 0.00000 0.00000 0.00000 ; methylguanidinium ion
12287 12304 12305 12309 3 20.50160 0.00000 -20.50160 0.00000 0.00000 0.00000 ; imides
12288 12287 12304 12303 3 30.28798 -4.81160 -25.47638 0.00000 0.00000 0.00000 ; imides
12288 12287 12304 12305 3 33.20422 0.00000 -33.20422 0.00000 0.00000 0.00000 ; methylguanidinium ion
12288 12295 12296 12297 3 33.20422 0.00000 -33.20422 0.00000 0.00000 0.00000 ; methylguanidinium ion
12288 12295 12296 12303 3 30.28798 -4.81160 -25.47638 0.00000 0.00000 0.00000 ; imides
12289 12288 12295 12296 3 33.20422 0.00000 -33.20422 0.00000 0.00000 0.00000 ; methylguanidinium ion
12290 198 197 196 3 1.58992 4.76976 0.00000 -6.35968 0.00000 0.00000
12290 198 197 199 3 1.58992 4.76976 0.00000 -6.35968 0.00000 0.00000
12290 198 197 200 3 1.58992 4.76976 0.00000 -6.35968 0.00000 0.00000
12295 12288 12289 12290 3 33.20422 0.00000 -33.20422 0.00000 0.00000 0.00000 ; methylguanidinium ion
12295 12288 12289 12293 3 20.50160 0.00000 -20.50160 0.00000 0.00000 0.00000 ; imides
12295 12296 12303 12304 3 30.28798 -4.81160 -25.47638 0.00000 0.00000 0.00000 ; imides
12296 12303 12304 12287 3 30.28798 -4.81160 -25.47638 0.00000 0.00000 0.00000 ; imides
12296 12303 12304 12305 3 33.20422 0.00000 -33.20422 0.00000 0.00000 0.00000 ; methylguanidinium ion
12297 12296 12303 12304 3 33.20422 0.00000 -33.20422 0.00000 0.00000 0.00000 ; methylguanidinium ion
12298 6686 6685 6684 3 1.58992 4.76976 0.00000 -6.35968 0.00000 0.00000
12298 6686 6685 6687 3 1.58992 4.76976 0.00000 -6.35968 0.00000 0.00000
12298 6686 6685 6688 3 1.58992 4.76976 0.00000 -6.35968 0.00000 0.00000
12303 12296 12297 12298 3 33.20422 0.00000 -33.20422 0.00000 0.00000 0.00000 ; methylguanidinium ion
12303 12296 12297 12301 3 20.50160 0.00000 -20.50160 0.00000 0.00000 0.00000 ; imides
12304 12287 12288 12289 3 33.20422 0.00000 -33.20422 0.00000 0.00000 0.00000 ; methylguanidinium ion
12304 12287 12288 12295 3 30.28798 -4.81160 -25.47638 0.00000 0.00000 0.00000 ; imides
12306 1872 1871 1870 3 1.58992 4.76976 0.00000 -6.35968 0.00000 0.00000
12306 1872 1871 1873 3 1.58992 4.76976 0.00000 -6.35968 0.00000 0.00000
12306 1872 1871 1874 3 1.58992 4.76976 0.00000 -6.35968 0.00000 0.00000
12311 12312 12319 12320 3 30.28798 -4.81160 -25.47638 0.00000 0.00000 0.00000 ; imides
12311 12328 12329 12330 3 33.20422 0.00000 -33.20422 0.00000 0.00000 0.00000 ; methylguanidinium ion
12311 12328 12329 12333 3 20.50160 0.00000 -20.50160 0.00000 0.00000 0.00000 ; imides
12312 12311 12328 12327 3 30.28798 -4.81160 -25.47638 0.00000 0.00000 0.00000 ; imides
12312 12311 12328 12329 3 33.20422 0.00000 -33.20422 0.00000 0.00000 0.00000 ; methylguanidinium ion
12312 12319 12320 12321 3 33.20422 0.00000 -33.20422 0.00000 0.00000 0.00000 ; methylguanidinium ion
12312 12319 12320 12327 3 30.28798 -4.81160 -25.47638 0.00000 0.00000 0.00000 ; imides
12313 12312 12319 12320 3 33.20422 0.00000 -33.20422 0.00000 0.00000 0.00000 ; methylguanidinium ion
12314 4383 4382 4381 3 1.58992 4.76976 0.00000 -6.35968 0.00000 0.00000
12314 4383 4382 4384 3 1.58992 4.76976 0.00000 -6.35968 0.00000 0.00000
12314 4383 4382 4385 3 1.58992 4.76976 0.00000 -6.35968 0.00000 0.00000
12319 12312 12313 12314 3 33.20422 0.00000 -33.20422 0.00000 0.00000 0.00000 ; methylguanidinium ion
12319 12312 12313 12317 3 20.50160 0.00000 -20.50160 0.00000 0.00000 0.00000 ; imides
12319 12320 12327 12328 3 30.28798 -4.81160 -25.47638 0.00000 0.00000 0.00000 ; imides
12320 12327 12328 12311 3 30.28798 -4.81160 -25.47638 0.00000 0.00000 0.00000 ; imides
12320 12327 12328 12329 3 33.20422 0.00000 -33.20422 0.00000 0.00000 0.00000 ; methylguanidinium ion
12321 12320 12327 12328 3 33.20422 0.00000 -33.20422 0.00000 0.00000 0.00000 ; methylguanidinium ion
12322 8015 8014 8013 3 1.58992 4.76976 0.00000 -6.35968 0.00000 0.00000
12322 8015 8014 8016 3 1.58992 4.76976 0.00000 -6.35968 0.00000 0.00000
12322 8015 8014 8017 3 1.58992 4.76976 0.00000 -6.35968 0.00000 0.00000
12327 12320 12321 12322 3 33.20422 0.00000 -33.20422 0.00000 0.00000 0.00000 ; methylguanidinium ion
12327 12320 12321 12325 3 20.50160 0.00000 -20.50160 0.00000 0.00000 0.00000 ; imides
12328 12311 12312 12313 3 33.20422 0.00000 -33.20422 0.00000 0.00000 0.00000 ; methylguanidinium ion
12328 12311 12312 12319 3 30.28798 -4.81160 -25.47638 0.00000 0.00000 0.00000 ; imides
12330 8742 8741 8740 3 1.58992 4.76976 0.00000 -6.35968 0.00000 0.00000
12330 8742 8741 8743 3 1.58992 4.76976 0.00000 -6.35968 0.00000 0.00000
12330 8742 8741 8744 3 1.58992 4.76976 0.00000 -6.35968 0.00000 0.00000
12335 12336 12343 12344 3 30.28798 -4.81160 -25.47638 0.00000 0.00000 0.00000 ; imides
12335 12352 12353 12354 3 33.20422 0.00000 -33.20422 0.00000 0.00000 0.00000 ; methylguanidinium ion
12335 12352 12353 12357 3 20.50160 0.00000 -20.50160 0.00000 0.00000 0.00000 ; imides
12336 12335 12352 12351 3 30.28798 -4.81160 -25.47638 0.00000 0.00000 0.00000 ; imides
12336 12335 12352 12353 3 33.20422 0.00000 -33.20422 0.00000 0.00000 0.00000 ; methylguanidinium ion
12336 12343 12344 12345 3 33.20422 0.00000 -33.20422 0.00000 0.00000 0.00000 ; methylguanidinium ion
12336 12343 12344 12351 3 30.28798 -4.81160 -25.47638 0.00000 0.00000 0.00000 ; imides
12337 12336 12343 12344 3 33.20422 0.00000 -33.20422 0.00000 0.00000 0.00000 ; methylguanidinium ion
12338 7960 7959 7958 3 1.58992 4.76976 0.00000 -6.35968 0.00000 0.00000
12338 7960 7959 7961 3 1.58992 4.76976 0.00000 -6.35968 0.00000 0.00000
12338 7960 7959 7962 3 1.58992 4.76976 0.00000 -6.35968 0.00000 0.00000
12343 12336 12337 12338 3 33.20422 0.00000 -33.20422 0.00000 0.00000 0.00000 ; methylguanidinium ion
12343 12336 12337 12341 3 20.50160 0.00000 -20.50160 0.00000 0.00000 0.00000 ; imides
12343 12344 12351 12352 3 30.28798 -4.81160 -25.47638 0.00000 0.00000 0.00000 ; imides
12344 12351 12352 12335 3 30.28798 -4.81160 -25.47638 0.00000 0.00000 0.00000 ; imides
12344 12351 12352 12353 3 33.20422 0.00000 -33.20422 0.00000 0.00000 0.00000 ; methylguanidinium ion
12345 12344 12351 12352 3 33.20422 0.00000 -33.20422 0.00000 0.00000 0.00000 ; methylguanidinium ion
12346 7021 7020 7019 3 1.58992 4.76976 0.00000 -6.35968 0.00000 0.00000
12346 7021 7020 7022 3 1.58992 4.76976 0.00000 -6.35968 0.00000 0.00000
12346 7021 7020 7023 3 1.58992 4.76976 0.00000 -6.35968 0.00000 0.00000
12351 12344 12345 12346 3 33.20422 0.00000 -33.20422 0.00000 0.00000 0.00000 ; methylguanidinium ion
12351 12344 12345 12349 3 20.50160 0.00000 -20.50160 0.00000 0.00000 0.00000 ; imides
12352 12335 12336 12337 3 33.20422 0.00000 -33.20422 0.00000 0.00000 0.00000 ; methylguanidinium ion
12352 12335 12336 12343 3 30.28798 -4.81160 -25.47638 0.00000 0.00000 0.00000 ; imides
12354 8228 8227 8226 3 1.58992 4.76976 0.00000 -6.35968 0.00000 0.00000
12354 8228 8227 8229 3 1.58992 4.76976 0.00000 -6.35968 0.00000 0.00000
12354 8228 8227 8230 3 1.58992 4.76976 0.00000 -6.35968 0.00000 0.00000
12359 12360 12367 12368 3 30.28798 -4.81160 -25.47638 0.00000 0.00000 0.00000 ; imides
12359 12376 12377 12378 3 33.20422 0.00000 -33.20422 0.00000 0.00000 0.00000 ; methylguanidinium ion
12359 12376 12377 12381 3 20.50160 0.00000 -20.50160 0.00000 0.00000 0.00000 ; imides
12360 12359 12376 12375 3 30.28798 -4.81160 -25.47638 0.00000 0.00000 0.00000 ; imides
12360 12359 12376 12377 3 33.20422 0.00000 -33.20422 0.00000 0.00000 0.00000 ; methylguanidinium ion
12360 12367 12368 12369 3 33.20422 0.00000 -33.20422 0.00000 0.00000 0.00000 ; methylguanidinium ion
12360 12367 12368 12375 3 30.28798 -4.81160 -25.47638 0.00000 0.00000 0.00000 ; imides
12361 12360 12367 12368 3 33.20422 0.00000 -33.20422 0.00000 0.00000 0.00000 ; methylguanidinium ion
12362 10383 10382 10381 3 1.58992 4.76976 0.00000 -6.35968 0.00000 0.00000
12362 10383 10382 10384 3 1.58992 4.76976 0.00000 -6.35968 0.00000 0.00000
12362 10383 10382 10385 3 1.58992 4.76976 0.00000 -6.35968 0.00000 0.00000
12367 12360 12361 12362 3 33.20422 0.00000 -33.20422 0.00000 0.00000 0.00000 ; methylguanidinium ion
12367 12360 12361 12365 3 20.50160 0.00000 -20.50160 0.00000 0.00000 0.00000 ; imides
12367 12368 12375 12376 3 30.28798 -4.81160 -25.47638 0.00000 0.00000 0.00000 ; imides
12368 12375 12376 12359 3 30.28798 -4.81160 -25.47638 0.00000 0.00000 0.00000 ; imides
12368 12375 12376 12377 3 33.20422 0.00000 -33.20422 0.00000 0.00000 0.00000 ; methylguanidinium ion
12369 12368 12375 12376 3 33.20422 0.00000 -33.20422 0.00000 0.00000 0.00000 ; methylguanidinium ion
12370 2382 2381 2380 3 1.58992 4.76976 0.00000 -6.35968 0.00000 0.00000
12370 2382 2381 2383 3 1.58992 4.76976 0.00000 -6.35968 0.00000 0.00000
12370 2382 2381 2384 3 1.58992 4.76976 0.00000 -6.35968 0.00000 0.00000
12375 12368 12369 12370 3 33.20422 0.00000 -33.20422 0.00000 0.00000 0.00000 ; methylguanidinium ion
12375 12368 12369 12373 3 20.50160 0.00000 -20.50160 0.00000 0.00000 0.00000 ; imides
12376 12359 12360 12361 3 33.20422 0.00000 -33.20422 0.00000 0.00000 0.00000 ; methylguanidinium ion
12376 12359 12360 12367 3 30.28798 -4.81160 -25.47638 0.00000 0.00000 0.00000 ; imides
12378 11833 11832 11831 3 1.58992 4.76976 0.00000 -6.35968 0.00000 0.00000
12378 11833 11832 11834 3 1.58992 4.76976 0.00000 -6.35968 0.00000 0.00000
12378 11833 11832 11835 3 1.58992 4.76976 0.00000 -6.35968 0.00000 0.00000
12383 12384 12391 12392 3 30.28798 -4.81160 -25.47638 0.00000 0.00000 0.00000 ; imides
12383 12400 12401 12402 3 33.20422 0.00000 -33.20422 0.00000 0.00000 0.00000 ; methylguanidinium ion
12383 12400 12401 12405 3 20.50160 0.00000 -20.50160 0.00000 0.00000 0.00000 ; imides
12384 12383 12400 12399 3 30.28798 -4.81160 -25.47638 0.00000 0.00000 0.00000 ; imides
12384 12383 12400 12401 3 33.20422 0.00000 -33.20422 0.00000 0.00000 0.00000 ; methylguanidinium ion
12384 12391 12392 12393 3 33.20422 0.00000 -33.20422 0.00000 0.00000 0.00000 ; methylguanidinium ion
12384 12391 12392 12399 3 30.28798 -4.81160 -25.47638 0.00000 0.00000 0.00000 ; imides
12385 12384 12391 12392 3 33.20422 0.00000 -33.20422 0.00000 0.00000 0.00000 ; methylguanidinium ion
12386 1846 1845 1844 3 1.58992 4.76976 0.00000 -6.35968 0.00000 0.00000
12386 1846 1845 1847 3 1.58992 4.76976 0.00000 -6.35968 0.00000 0.00000
12386 1846 1845 1848 3 1.58992 4.76976 0.00000 -6.35968 0.00000 0.00000
12391 12384 12385 12386 3 33.20422 0.00000 -33.20422 0.00000 0.00000 0.00000 ; methylguanidinium ion
12391 12384 12385 12389 3 20.50160 0.00000 -20.50160 0.00000 0.00000 0.00000 ; imides
12391 12392 12399 12400 3 30.28798 -4.81160 -25.47638 0.00000 0.00000 0.00000 ; imides
12392 12399 12400 12383 3 30.28798 -4.81160 -25.47638 0.00000 0.00000 0.00000 ; imides
12392 12399 12400 12401 3 33.20422 0.00000 -33.20422 0.00000 0.00000 0.00000 ; methylguanidinium ion
12393 12392 12399 12400 3 33.20422 0.00000 -33.20422 0.00000 0.00000 0.00000 ; methylguanidinium ion
12394 3613 3612 3611 3 1.58992 4.76976 0.00000 -6.35968 0.00000 0.00000
12394 3613 3612 3614 3 1.58992 4.76976 0.00000 -6.35968 0.00000 0.00000
12394 3613 3612 3615 3 1.58992 4.76976 0.00000 -6.35968 0.00000 0.00000
12399 12392 12393 12394 3 33.20422 0.00000 -33.20422 0.00000 0.00000 0.00000 ; methylguanidinium ion
12399 12392 12393 12397 3 20.50160 0.00000 -20.50160 0.00000 0.00000 0.00000 ; imides
12400 12383 12384 12385 3 33.20422 0.00000 -33.20422 0.00000 0.00000 0.00000 ; methylguanidinium ion
12400 12383 12384 12391 3 30.28798 -4.81160 -25.47638 0.00000 0.00000 0.00000 ; imides
12402 2642 2641 2640 3 1.58992 4.76976 0.00000 -6.35968 0.00000 0.00000
12402 2642 2641 2643 3 1.58992 4.76976 0.00000 -6.35968 0.00000 0.00000
12402 2642 2641 2644 3 1.58992 4.76976 0.00000 -6.35968 0.00000 0.00000
12407 12408 12415 12416 3 30.28798 -4.81160 -25.47638 0.00000 0.00000 0.00000 ; imides
12407 12426 12427 12428 3 33.20422 0.00000 -33.20422 0.00000 0.00000 0.00000 ; methylguanidinium ion
12407 12426 12427 12431 3 20.50160 0.00000 -20.50160 0.00000 0.00000 0.00000 ; imides
12408 12407 12426 12425 3 30.28798 -4.81160 -25.47638 0.00000 0.00000 0.00000 ; imides
12408 12407 12426 12427 3 33.20422 0.00000 -33.20422 0.00000 0.00000 0.00000 ; methylguanidinium ion
12408 12415 12416 12417 3 33.20422 0.00000 -33.20422 0.00000 0.00000 0.00000 ; methylguanidinium ion
12408 12415 12416 12425 3 30.28798 -4.81160 -25.47638 0.00000 0.00000 0.00000 ; imides
12409 12408 12415 12416 3 33.20422 0.00000 -33.20422 0.00000 0.00000 0.00000 ; methylguanidinium ion
12410 12198 12197 12196 3 1.58992 4.76976 0.00000 -6.35968 0.00000 0.00000
12410 12198 12197 12199 3 1.58992 4.76976 0.00000 -6.35968 0.00000 0.00000
12410 12198 12197 12200 3 1.58992 4.76976 0.00000 -6.35968 0.00000 0.00000
12415 12408 12409 12410 3 33.20422 0.00000 -33.20422 0.00000 0.00000 0.00000 ; methylguanidinium ion
12415 12408 12409 12413 3 20.50160 0.00000 -20.50160 0.00000 0.00000 0.00000 ; imides
12415 12416 12425 12426 3 30.28798 -4.81160 -25.47638 0.00000 0.00000 0.00000 ; imides
12416 12425 12426 12407 3 30.28798 -4.81160 -25.47638 0.00000 0.00000 0.00000 ; imides
12416 12425 12426 12427 3 33.20422 0.00000 -33.20422 0.00000 0.00000 0.00000 ; methylguanidinium ion
12417 12416 12425 12426 3 33.20422 0.00000 -33.20422 0.00000 0.00000 0.00000 ; methylguanidinium ion
12425 12416 12417 12418 3 33.20422 0.00000 -33.20422 0.00000 0.00000 0.00000 ; methylguanidinium ion
12425 12416 12417 12423 3 20.50160 0.00000 -20.50160 0.00000 0.00000 0.00000 ; imides
12426 12407 12408 12409 3 33.20422 0.00000 -33.20422 0.00000 0.00000 0.00000 ; methylguanidinium ion
12426 12407 12408 12415 3 30.28798 -4.81160 -25.47638 0.00000 0.00000 0.00000 ; imides
12428 11280 11279 11278 3 1.58992 4.76976 0.00000 -6.35968 0.00000 0.00000
12428 11280 11279 11281 3 1.58992 4.76976 0.00000 -6.35968 0.00000 0.00000
12428 11280 11279 11282 3 1.58992 4.76976 0.00000 -6.35968 0.00000 0.00000
12433 12434 12441 12442 3 30.28798 -4.81160 -25.47638 0.00000 0.00000 0.00000 ; imides
12433 12450 12451 12452 3 33.20422 0.00000 -33.20422 0.00000 0.00000 0.00000 ; methylguanidinium ion
12433 12450 12451 12455 3 20.50160 0.00000 -20.50160 0.00000 0.00000 0.00000 ; imides
12434 12433 12450 12449 3 30.28798 -4.81160 -25.47638 0.00000 0.00000 0.00000 ; imides
12434 12433 12450 12451 3 33.20422 0.00000 -33.20422 0.00000 0.00000 0.00000 ; methylguanidinium ion
12434 12441 12442 12443 3 33.20422 0.00000 -33.20422 0.00000 0.00000 0.00000 ; methylguanidinium ion
12434 12441 12442 12449 3 30.28798 -4.81160 -25.47638 0.00000 0.00000 0.00000 ; imides
12435 12434 12441 12442 3 33.20422 0.00000 -33.20422 0.00000 0.00000 0.00000 ; methylguanidinium ion
12436 3115 3114 3113 3 1.58992 4.76976 0.00000 -6.35968 0.00000 0.00000
12436 3115 3114 3116 3 1.58992 4.76976 0.00000 -6.35968 0.00000 0.00000
12436 3115 3114 3117 3 1.58992 4.76976 0.00000 -6.35968 0.00000 0.00000
12441 12434 12435 12436 3 33.20422 0.00000 -33.20422 0.00000 0.00000 0.00000 ; methylguanidinium ion
12441 12434 12435 12439 3 20.50160 0.00000 -20.50160 0.00000 0.00000 0.00000 ; imides
12441 12442 12449 12450 3 30.28798 -4.81160 -25.47638 0.00000 0.00000 0.00000 ; imides
12442 12449 12450 12433 3 30.28798 -4.81160 -25.47638 0.00000 0.00000 0.00000 ; imides
12442 12449 12450 12451 3 33.20422 0.00000 -33.20422 0.00000 0.00000 0.00000 ; methylguanidinium ion
12443 12442 12449 12450 3 33.20422 0.00000 -33.20422 0.00000 0.00000 0.00000 ; methylguanidinium ion
12444 3692 3691 3690 3 1.58992 4.76976 0.00000 -6.35968 0.00000 0.00000
12444 3692 3691 3693 3 1.58992 4.76976 0.00000 -6.35968 0.00000 0.00000
12444 3692 3691 3694 3 1.58992 4.76976 0.00000 -6.35968 0.00000 0.00000
12449 12442 12443 12444 3 33.20422 0.00000 -33.20422 0.00000 0.00000 0.00000 ; methylguanidinium ion
12449 12442 12443 12447 3 20.50160 0.00000 -20.50160 0.00000 0.00000 0.00000 ; imides
12450 12433 12434 12435 3 33.20422 0.00000 -33.20422 0.00000 0.00000 0.00000 ; methylguanidinium ion
12450 12433 12434 12441 3 30.28798 -4.81160 -25.47638 0.00000 0.00000 0.00000 ; imides
12452 1000 999 998 3 1.58992 4.76976 0.00000 -6.35968 0.00000 0.00000
12452 1000 999 1001 3 1.58992 4.76976 0.00000 -6.35968 0.00000 0.00000
12452 1000 999 1002 3 1.58992 4.76976 0.00000 -6.35968 0.00000 0.00000
12457 12458 12465 12466 3 30.28798 -4.81160 -25.47638 0.00000 0.00000 0.00000 ; imides
12457 12474 12475 12476 3 33.20422 0.00000 -33.20422 0.00000 0.00000 0.00000 ; methylguanidinium ion
12457 12474 12475 12479 3 20.50160 0.00000 -20.50160 0.00000 0.00000 0.00000 ; imides
12458 12457 12474 12473 3 30.28798 -4.81160 -25.47638 0.00000 0.00000 0.00000 ; imides
12458 12457 12474 12475 3 33.20422 0.00000 -33.20422 0.00000 0.00000 0.00000 ; methylguanidinium ion
12458 12465 12466 12467 3 33.20422 0.00000 -33.20422 0.00000 0.00000 0.00000 ; methylguanidinium ion
12458 12465 12466 12473 3 30.28798 -4.81160 -25.47638 0.00000 0.00000 0.00000 ; imides
12459 12458 12465 12466 3 33.20422 0.00000 -33.20422 0.00000 0.00000 0.00000 ; methylguanidinium ion
12460 11150 11149 11148 3 1.58992 4.76976 0.00000 -6.35968 0.00000 0.00000
12460 11150 11149 11151 3 1.58992 4.76976 0.00000 -6.35968 0.00000 0.00000
12460 11150 11149 11152 3 1.58992 4.76976 0.00000 -6.35968 0.00000 0.00000
12465 12458 12459 12460 3 33.20422 0.00000 -33.20422 0.00000 0.00000 0.00000 ; methylguanidinium ion
12465 12458 12459 12463 3 20.50160 0.00000 -20.50160 0.00000 0.00000 0.00000 ; imides
12465 12466 12473 12474 3 30.28798 -4.81160 -25.47638 0.00000 0.00000 0.00000 ; imides
12466 12473 12474 12457 3 30.28798 -4.81160 -25.47638 0.00000 0.00000 0.00000 ; imides
12466 12473 12474 12475 3 33.20422 0.00000 -33.20422 0.00000 0.00000 0.00000 ; methylguanidinium ion
12467 12466 12473 12474 3 33.20422 0.00000 -33.20422 0.00000 0.00000 0.00000 ; methylguanidinium ion
12468 4808 4807 4806 3 1.58992 4.76976 0.00000 -6.35968 0.00000 0.00000
12468 4808 4807 4809 3 1.58992 4.76976 0.00000 -6.35968 0.00000 0.00000
12468 4808 4807 4810 3 1.58992 4.76976 0.00000 -6.35968 0.00000 0.00000
12473 12466 12467 12468 3 33.20422 0.00000 -33.20422 0.00000 0.00000 0.00000 ; methylguanidinium ion
12473 12466 12467 12471 3 20.50160 0.00000 -20.50160 0.00000 0.00000 0.00000 ; imides
12474 12457 12458 12459 3 33.20422 0.00000 -33.20422 0.00000 0.00000 0.00000 ; methylguanidinium ion
12474 12457 12458 12465 3 30.28798 -4.81160 -25.47638 0.00000 0.00000 0.00000 ; imides
12476 2688 2687 2686 3 1.58992 4.76976 0.00000 -6.35968 0.00000 0.00000
12476 2688 2687 2689 3 1.58992 4.76976 0.00000 -6.35968 0.00000 0.00000
12476 2688 2687 2690 3 1.58992 4.76976 0.00000 -6.35968 0.00000 0.00000
12481 12482 12489 12490 3 30.28798 -4.81160 -25.47638 0.00000 0.00000 0.00000 ; imides
12481 12500 12501 12502 3 33.20422 0.00000 -33.20422 0.00000 0.00000 0.00000 ; methylguanidinium ion
12481 12500 12501 12505 3 20.50160 0.00000 -20.50160 0.00000 0.00000 0.00000 ; imides
12482 12481 12500 12499 3 30.28798 -4.81160 -25.47638 0.00000 0.00000 0.00000 ; imides
12482 12481 12500 12501 3 33.20422 0.00000 -33.20422 0.00000 0.00000 0.00000 ; methylguanidinium ion
12482 12489 12490 12491 3 33.20422 0.00000 -33.20422 0.00000 0.00000 0.00000 ; methylguanidinium ion
12482 12489 12490 12499 3 30.28798 -4.81160 -25.47638 0.00000 0.00000 0.00000 ; imides
12483 12482 12489 12490 3 33.20422 0.00000 -33.20422 0.00000 0.00000 0.00000 ; methylguanidinium ion
12484 7849 7848 7847 3 1.58992 4.76976 0.00000 -6.35968 0.00000 0.00000
12484 7849 7848 7850 3 1.58992 4.76976 0.00000 -6.35968 0.00000 0.00000
12484 7849 7848 7851 3 1.58992 4.76976 0.00000 -6.35968 0.00000 0.00000
12489 12482 12483 12484 3 33.20422 0.00000 -33.20422 0.00000 0.00000 0.00000 ; methylguanidinium ion
12489 12482 12483 12487 3 20.50160 0.00000 -20.50160 0.00000 0.00000 0.00000 ; imides
12489 12490 12499 12500 3 30.28798 -4.81160 -25.47638 0.00000 0.00000 0.00000 ; imides
12490 12499 12500 12481 3 30.28798 -4.81160 -25.47638 0.00000 0.00000 0.00000 ; imides
12490 12499 12500 12501 3 33.20422 0.00000 -33.20422 0.00000 0.00000 0.00000 ; methylguanidinium ion
12491 12490 12499 12500 3 33.20422 0.00000 -33.20422 0.00000 0.00000 0.00000 ; methylguanidinium ion
12499 12490 12491 12492 3 33.20422 0.00000 -33.20422 0.00000 0.00000 0.00000 ; methylguanidinium ion
12499 12490 12491 12497 3 20.50160 0.00000 -20.50160 0.00000 0.00000 0.00000 ; imides
12500 12481 12482 12483 3 33.20422 0.00000 -33.20422 0.00000 0.00000 0.00000 ; methylguanidinium ion
12500 12481 12482 12489 3 30.28798 -4.81160 -25.47638 0.00000 0.00000 0.00000 ; imides
12502 9160 9159 9158 3 1.58992 4.76976 0.00000 -6.35968 0.00000 0.00000
12502 9160 9159 9161 3 1.58992 4.76976 0.00000 -6.35968 0.00000 0.00000
12502 9160 9159 9162 3 1.58992 4.76976 0.00000 -6.35968 0.00000 0.00000
12507 12508 12515 12516 3 30.28798 -4.81160 -25.47638 0.00000 0.00000 0.00000 ; imides
12507 12526 12527 12528 3 33.20422 0.00000 -33.20422 0.00000 0.00000 0.00000 ; methylguanidinium ion
12507 12526 12527 12531 3 20.50160 0.00000 -20.50160 0.00000 0.00000 0.00000 ; imides
12508 12507 12526 12525 3 30.28798 -4.81160 -25.47638 0.00000 0.00000 0.00000 ; imides
12508 12507 12526 12527 3 33.20422 0.00000 -33.20422 0.00000 0.00000 0.00000 ; methylguanidinium ion
12508 12515 12516 12517 3 33.20422 0.00000 -33.20422 0.00000 0.00000 0.00000 ; methylguanidinium ion
12508 12515 12516 12525 3 30.28798 -4.81160 -25.47638 0.00000 0.00000 0.00000 ; imides
12509 12508 12515 12516 3 33.20422 0.00000 -33.20422 0.00000 0.00000 0.00000 ; methylguanidinium ion
12510 3309 3308 3307 3 1.58992 4.76976 0.00000 -6.35968 0.00000 0.00000
12510 3309 3308 3310 3 1.58992 4.76976 0.00000 -6.35968 0.00000 0.00000
12510 3309 3308 3311 3 1.58992 4.76976 0.00000 -6.35968 0.00000 0.00000
12515 12508 12509 12510 3 33.20422 0.00000 -33.20422 0.00000 0.00000 0.00000 ; methylguanidinium ion
12515 12508 12509 12513 3 20.50160 0.00000 -20.50160 0.00000 0.00000 0.00000 ; imides
12515 12516 12525 12526 3 30.28798 -4.81160 -25.47638 0.00000 0.00000 0.00000 ; imides
12516 12525 12526 12507 3 30.28798 -4.81160 -25.47638 0.00000 0.00000 0.00000 ; imides
12516 12525 12526 12527 3 33.20422 0.00000 -33.20422 0.00000 0.00000 0.00000 ; methylguanidinium ion
12517 12516 12525 12526 3 33.20422 0.00000 -33.20422 0.00000 0.00000 0.00000 ; methylguanidinium ion
12525 12516 12517 12518 3 33.20422 0.00000 -33.20422 0.00000 0.00000 0.00000 ; methylguanidinium ion
12525 12516 12517 12523 3 20.50160 0.00000 -20.50160 0.00000 0.00000 0.00000 ; imides
12526 12507 12508 12509 3 33.20422 0.00000 -33.20422 0.00000 0.00000 0.00000 ; methylguanidinium ion
12526 12507 12508 12515 3 30.28798 -4.81160 -25.47638 0.00000 0.00000 0.00000 ; imides
12528 11932 11931 11930 3 1.58992 4.76976 0.00000 -6.35968 0.00000 0.00000
12528 11932 11931 11933 3 1.58992 4.76976 0.00000 -6.35968 0.00000 0.00000
12528 11932 11931 11934 3 1.58992 4.76976 0.00000 -6.35968 0.00000 0.00000
12533 12534 12541 12542 3 30.28798 -4.81160 -25.47638 0.00000 0.00000 0.00000 ; imides
12533 12550 12551 12552 3 33.20422 0.00000 -33.20422 0.00000 0.00000 0.00000 ; methylguanidinium ion
12533 12550 12551 12557 3 20.50160 0.00000 -20.50160 0.00000 0.00000 0.00000 ; imides
12534 12533 12550 12549 3 30.28798 -4.81160 -25.47638 0.00000 0.00000 0.00000 ; imides
12534 12533 12550 12551 3 33.20422 0.00000 -33.20422 0.00000 0.00000 0.00000 ; methylguanidinium ion
12534 12541 12542 12543 3 33.20422 0.00000 -33.20422 0.00000 0.00000 0.00000 ; methylguanidinium ion
12534 12541 12542 12549 3 30.28798 -4.81160 -25.47638 0.00000 0.00000 0.00000 ; imides
12535 12534 12541 12542 3 33.20422 0.00000 -33.20422 0.00000 0.00000 0.00000 ; methylguanidinium ion
12536 4252 4251 4250 3 1.58992 4.76976 0.00000 -6.35968 0.00000 0.00000
12536 4252 4251 4253 3 1.58992 4.76976 0.00000 -6.35968 0.00000 0.00000
12536 4252 4251 4254 3 1.58992 4.76976 0.00000 -6.35968 0.00000 0.00000
12541 12534 12535 12536 3 33.20422 0.00000 -33.20422 0.00000 0.00000 0.00000 ; methylguanidinium ion
12541 12534 12535 12539 3 20.50160 0.00000 -20.50160 0.00000 0.00000 0.00000 ; imides
12541 12542 12549 12550 3 30.28798 -4.81160 -25.47638 0.00000 0.00000 0.00000 ; imides
12542 12549 12550 12533 3 30.28798 -4.81160 -25.47638 0.00000 0.00000 0.00000 ; imides
12542 12549 12550 12551 3 33.20422 0.00000 -33.20422 0.00000 0.00000 0.00000 ; methylguanidinium ion
12543 12542 12549 12550 3 33.20422 0.00000 -33.20422 0.00000 0.00000 0.00000 ; methylguanidinium ion
12544 6562 6561 6560 3 1.58992 4.76976 0.00000 -6.35968 0.00000 0.00000
12544 6562 6561 6563 3 1.58992 4.76976 0.00000 -6.35968 0.00000 0.00000
12544 6562 6561 6564 3 1.58992 4.76976 0.00000 -6.35968 0.00000 0.00000
12549 12542 12543 12544 3 33.20422 0.00000 -33.20422 0.00000 0.00000 0.00000 ; methylguanidinium ion
12549 12542 12543 12547 3 20.50160 0.00000 -20.50160 0.00000 0.00000 0.00000 ; imides
12550 12533 12534 12535 3 33.20422 0.00000 -33.20422 0.00000 0.00000 0.00000 ; methylguanidinium ion
12550 12533 12534 12541 3 30.28798 -4.81160 -25.47638 0.00000 0.00000 0.00000 ; imides
12559 12560 12567 12568 3 30.28798 -4.81160 -25.47638 0.00000 0.00000 0.00000 ; imides
12559 12576 12577 12578 3 33.20422 0.00000 -33.20422 0.00000 0.00000 0.00000 ; methylguanidinium ion
12559 12576 12577 12581 3 20.50160 0.00000 -20.50160 0.00000 0.00000 0.00000 ; imides
12560 12559 12576 12575 3 30.28798 -4.81160 -25.47638 0.00000 0.00000 0.00000 ; imides
12560 12559 12576 12577 3 33.20422 0.00000 -33.20422 0.00000 0.00000 0.00000 ; methylguanidinium ion
12560 12567 12568 12569 3 33.20422 0.00000 -33.20422 0.00000 0.00000 0.00000 ; methylguanidinium ion
12560 12567 12568 12575 3 30.28798 -4.81160 -25.47638 0.00000 0.00000 0.00000 ; imides
12561 12560 12567 12568 3 33.20422 0.00000 -33.20422 0.00000 0.00000 0.00000 ; methylguanidinium ion
12562 9845 9844 9843 3 1.58992 4.76976 0.00000 -6.35968 0.00000 0.00000
12562 9845 9844 9846 3 1.58992 4.76976 0.00000 -6.35968 0.00000 0.00000
12562 9845 9844 9847 3 1.58992 4.76976 0.00000 -6.35968 0.00000 0.00000
12567 12560 12561 12562 3 33.20422 0.00000 -33.20422 0.00000 0.00000 0.00000 ; methylguanidinium ion
12567 12560 12561 12565 3 20.50160 0.00000 -20.50160 0.00000 0.00000 0.00000 ; imides
12567 12568 12575 12576 3 30.28798 -4.81160 -25.47638 0.00000 0.00000 0.00000 ; imides
12568 12575 12576 12559 3 30.28798 -4.81160 -25.47638 0.00000 0.00000 0.00000 ; imides
12568 12575 12576 12577 3 33.20422 0.00000 -33.20422 0.00000 0.00000 0.00000 ; methylguanidinium ion
12569 12568 12575 12576 3 33.20422 0.00000 -33.20422 0.00000 0.00000 0.00000 ; methylguanidinium ion
12570 2292 2291 2290 3 1.58992 4.76976 0.00000 -6.35968 0.00000 0.00000
12570 2292 2291 2293 3 1.58992 4.76976 0.00000 -6.35968 0.00000 0.00000
12570 2292 2291 2294 3 1.58992 4.76976 0.00000 -6.35968 0.00000 0.00000
12575 12568 12569 12570 3 33.20422 0.00000 -33.20422 0.00000 0.00000 0.00000 ; methylguanidinium ion
12575 12568 12569 12573 3 20.50160 0.00000 -20.50160 0.00000 0.00000 0.00000 ; imides
12576 12559 12560 12561 3 33.20422 0.00000 -33.20422 0.00000 0.00000 0.00000 ; methylguanidinium ion
12576 12559 12560 12567 3 30.28798 -4.81160 -25.47638 0.00000 0.00000 0.00000 ; imides
12578 3501 3500 3499 3 1.58992 4.76976 0.00000 -6.35968 0.00000 0.00000
12578 3501 3500 3502 3 1.58992 4.76976 0.00000 -6.35968 0.00000 0.00000
12578 3501 3500 3503 3 1.58992 4.76976 0.00000 -6.35968 0.00000 0.00000
12583 12584 12591 12592 3 30.28798 -4.81160 -25.47638 0.00000 0.00000 0.00000 ; imides
12583 12600 12601 12602 3 33.20422 0.00000 -33.20422 0.00000 0.00000 0.00000 ; methylguanidinium ion
12583 12600 12601 12605 3 20.50160 0.00000 -20.50160 0.00000 0.00000 0.00000 ; imides
12584 12583 12600 12599 3 30.28798 -4.81160 -25.47638 0.00000 0.00000 0.00000 ; imides
12584 12583 12600 12601 3 33.20422 0.00000 -33.20422 0.00000 0.00000 0.00000 ; methylguanidinium ion
12584 12591 12592 12593 3 33.20422 0.00000 -33.20422 0.00000 0.00000 0.00000 ; methylguanidinium ion
12584 12591 12592 12599 3 30.28798 -4.81160 -25.47638 0.00000 0.00000 0.00000 ; imides
12585 12584 12591 12592 3 33.20422 0.00000 -33.20422 0.00000 0.00000 0.00000 ; methylguanidinium ion
12586 9553 9552 9551 3 1.58992 4.76976 0.00000 -6.35968 0.00000 0.00000
12586 9553 9552 9554 3 1.58992 4.76976 0.00000 -6.35968 0.00000 0.00000
12586 9553 9552 9555 3 1.58992 4.76976 0.00000 -6.35968 0.00000 0.00000
12591 12584 12585 12586 3 33.20422 0.00000 -33.20422 0.00000 0.00000 0.00000 ; methylguanidinium ion
12591 12584 12585 12589 3 20.50160 0.00000 -20.50160 0.00000 0.00000 0.00000 ; imides
12591 12592 12599 12600 3 30.28798 -4.81160 -25.47638 0.00000 0.00000 0.00000 ; imides
12592 12599 12600 12583 3 30.28798 -4.81160 -25.47638 0.00000 0.00000 0.00000 ; imides
12592 12599 12600 12601 3 33.20422 0.00000 -33.20422 0.00000 0.00000 0.00000 ; methylguanidinium ion
12593 12592 12599 12600 3 33.20422 0.00000 -33.20422 0.00000 0.00000 0.00000 ; methylguanidinium ion
12594 8405 8404 8403 3 1.58992 4.76976 0.00000 -6.35968 0.00000 0.00000
12594 8405 8404 8406 3 1.58992 4.76976 0.00000 -6.35968 0.00000 0.00000
12594 8405 8404 8407 3 1.58992 4.76976 0.00000 -6.35968 0.00000 0.00000
12599 12592 12593 12594 3 33.20422 0.00000 -33.20422 0.00000 0.00000 0.00000 ; methylguanidinium ion
12599 12592 12593 12597 3 20.50160 0.00000 -20.50160 0.00000 0.00000 0.00000 ; imides
12600 12583 12584 12585 3 33.20422 0.00000 -33.20422 0.00000 0.00000 0.00000 ; methylguanidinium ion
12600 12583 12584 12591 3 30.28798 -4.81160 -25.47638 0.00000 0.00000 0.00000 ; imides
12602 9041 9040 9039 3 1.58992 4.76976 0.00000 -6.35968 0.00000 0.00000
12602 9041 9040 9042 3 1.58992 4.76976 0.00000 -6.35968 0.00000 0.00000
12602 9041 9040 9043 3 1.58992 4.76976 0.00000 -6.35968 0.00000 0.00000
12607 12608 12615 12616 3 30.28798 -4.81160 -25.47638 0.00000 0.00000 0.00000 ; imides
12607 12624 12625 12626 3 33.20422 0.00000 -33.20422 0.00000 0.00000 0.00000 ; methylguanidinium ion
12607 12624 12625 12629 3 20.50160 0.00000 -20.50160 0.00000 0.00000 0.00000 ; imides
12608 12607 12624 12623 3 30.28798 -4.81160 -25.47638 0.00000 0.00000 0.00000 ; imides
12608 12607 12624 12625 3 33.20422 0.00000 -33.20422 0.00000 0.00000 0.00000 ; methylguanidinium ion
12608 12615 12616 12617 3 33.20422 0.00000 -33.20422 0.00000 0.00000 0.00000 ; methylguanidinium ion
12608 12615 12616 12623 3 30.28798 -4.81160 -25.47638 0.00000 0.00000 0.00000 ; imides
12609 12608 12615 12616 3 33.20422 0.00000 -33.20422 0.00000 0.00000 0.00000 ; methylguanidinium ion
12610 8380 8379 8378 3 1.58992 4.76976 0.00000 -6.35968 0.00000 0.00000
12610 8380 8379 8381 3 1.58992 4.76976 0.00000 -6.35968 0.00000 0.00000
12610 8380 8379 8382 3 1.58992 4.76976 0.00000 -6.35968 0.00000 0.00000
12615 12608 12609 12610 3 33.20422 0.00000 -33.20422 0.00000 0.00000 0.00000 ; methylguanidinium ion
12615 12608 12609 12613 3 20.50160 0.00000 -20.50160 0.00000 0.00000 0.00000 ; imides
12615 12616 12623 12624 3 30.28798 -4.81160 -25.47638 0.00000 0.00000 0.00000 ; imides
12616 12623 12624 12607 3 30.28798 -4.81160 -25.47638 0.00000 0.00000 0.00000 ; imides
12616 12623 12624 12625 3 33.20422 0.00000 -33.20422 0.00000 0.00000 0.00000 ; methylguanidinium ion
12617 12616 12623 12624 3 33.20422 0.00000 -33.20422 0.00000 0.00000 0.00000 ; methylguanidinium ion
12618 11011 11010 11009 3 1.58992 4.76976 0.00000 -6.35968 0.00000 0.00000
12618 11011 11010 11012 3 1.58992 4.76976 0.00000 -6.35968 0.00000 0.00000
12618 11011 11010 11013 3 1.58992 4.76976 0.00000 -6.35968 0.00000 0.00000
12623 12616 12617 12618 3 33.20422 0.00000 -33.20422 0.00000 0.00000 0.00000 ; methylguanidinium ion
12623 12616 12617 12621 3 20.50160 0.00000 -20.50160 0.00000 0.00000 0.00000 ; imides
12624 12607 12608 12609 3 33.20422 0.00000 -33.20422 0.00000 0.00000 0.00000 ; methylguanidinium ion
12624 12607 12608 12615 3 30.28798 -4.81160 -25.47638 0.00000 0.00000 0.00000 ; imides
12626 9746 9745 9744 3 1.58992 4.76976 0.00000 -6.35968 0.00000 0.00000
12626 9746 9745 9747 3 1.58992 4.76976 0.00000 -6.35968 0.00000 0.00000
12626 9746 9745 9748 3 1.58992 4.76976 0.00000 -6.35968 0.00000 0.00000
12631 12632 12639 12640 3 30.28798 -4.81160 -25.47638 0.00000 0.00000 0.00000 ; imides
12631 12648 12649 12650 3 33.20422 0.00000 -33.20422 0.00000 0.00000 0.00000 ; methylguanidinium ion
12631 12648 12649 12653 3 20.50160 0.00000 -20.50160 0.00000 0.00000 0.00000 ; imides
12632 12631 12648 12647 3 30.28798 -4.81160 -25.47638 0.00000 0.00000 0.00000 ; imides
12632 12631 12648 12649 3 33.20422 0.00000 -33.20422 0.00000 0.00000 0.00000 ; methylguanidinium ion
12632 12639 12640 12641 3 33.20422 0.00000 -33.20422 0.00000 0.00000 0.00000 ; methylguanidinium ion
12632 12639 12640 12647 3 30.28798 -4.81160 -25.47638 0.00000 0.00000 0.00000 ; imides
12633 12632 12639 12640 3 33.20422 0.00000 -33.20422 0.00000 0.00000 0.00000 ; methylguanidinium ion
12634 7159 7158 7157 3 1.58992 4.76976 0.00000 -6.35968 0.00000 0.00000
12634 7159 7158 7160 3 1.58992 4.76976 0.00000 -6.35968 0.00000 0.00000
12634 7159 7158 7161 3 1.58992 4.76976 0.00000 -6.35968 0.00000 0.00000
12639 12632 12633 12634 3 33.20422 0.00000 -33.20422 0.00000 0.00000 0.00000 ; methylguanidinium ion
12639 12632 12633 12637 3 20.50160 0.00000 -20.50160 0.00000 0.00000 0.00000 ; imides
12639 12640 12647 12648 3 30.28798 -4.81160 -25.47638 0.00000 0.00000 0.00000 ; imides
12640 12647 12648 12631 3 30.28798 -4.81160 -25.47638 0.00000 0.00000 0.00000 ; imides
12640 12647 12648 12649 3 33.20422 0.00000 -33.20422 0.00000 0.00000 0.00000 ; methylguanidinium ion
12641 12640 12647 12648 3 33.20422 0.00000 -33.20422 0.00000 0.00000 0.00000 ; methylguanidinium ion
12642 6144 6143 6142 3 1.58992 4.76976 0.00000 -6.35968 0.00000 0.00000
12642 6144 6143 6145 3 1.58992 4.76976 0.00000 -6.35968 0.00000 0.00000
12642 6144 6143 6146 3 1.58992 4.76976 0.00000 -6.35968 0.00000 0.00000
12647 12640 12641 12642 3 33.20422 0.00000 -33.20422 0.00000 0.00000 0.00000 ; methylguanidinium ion
12647 12640 12641 12645 3 20.50160 0.00000 -20.50160 0.00000 0.00000 0.00000 ; imides
12648 12631 12632 12633 3 33.20422 0.00000 -33.20422 0.00000 0.00000 0.00000 ; methylguanidinium ion
12648 12631 12632 12639 3 30.28798 -4.81160 -25.47638 0.00000 0.00000 0.00000 ; imides
12650 171 170 169 3 1.58992 4.76976 0.00000 -6.35968 0.00000 0.00000
12650 171 170 172 3 1.58992 4.76976 0.00000 -6.35968 0.00000 0.00000
12650 171 170 173 3 1.58992 4.76976 0.00000 -6.35968 0.00000 0.00000
12655 12656 12663 12664 3 30.28798 -4.81160 -25.47638 0.00000 0.00000 0.00000 ; imides
12655 12672 12673 12674 3 33.20422 0.00000 -33.20422 0.00000 0.00000 0.00000 ; methylguanidinium ion
12655 12672 12673 12679 3 20.50160 0.00000 -20.50160 0.00000 0.00000 0.00000 ; imides
12656 12655 12672 12671 3 30.28798 -4.81160 -25.47638 0.00000 0.00000 0.00000 ; imides
12656 12655 12672 12673 3 33.20422 0.00000 -33.20422 0.00000 0.00000 0.00000 ; methylguanidinium ion
12656 12663 12664 12665 3 33.20422 0.00000 -33.20422 0.00000 0.00000 0.00000 ; methylguanidinium ion
12656 12663 12664 12671 3 30.28798 -4.81160 -25.47638 0.00000 0.00000 0.00000 ; imides
12657 12656 12663 12664 3 33.20422 0.00000 -33.20422 0.00000 0.00000 0.00000 ; methylguanidinium ion
12658 11229 11228 11227 3 1.58992 4.76976 0.00000 -6.35968 0.00000 0.00000
12658 11229 11228 11230 3 1.58992 4.76976 0.00000 -6.35968 0.00000 0.00000
12658 11229 11228 11231 3 1.58992 4.76976 0.00000 -6.35968 0.00000 0.00000
12663 12656 12657 12658 3 33.20422 0.00000 -33.20422 0.00000 0.00000 0.00000 ; methylguanidinium ion
12663 12656 12657 12661 3 20.50160 0.00000 -20.50160 0.00000 0.00000 0.00000 ; imides
12663 12664 12671 12672 3 30.28798 -4.81160 -25.47638 0.00000 0.00000 0.00000 ; imides
12664 12671 12672 12655 3 30.28798 -4.81160 -25.47638 0.00000 0.00000 0.00000 ; imides
12664 12671 12672 12673 3 33.20422 0.00000 -33.20422 0.00000 0.00000 0.00000 ; methylguanidinium ion
12665 12664 12671 12672 3 33.20422 0.00000 -33.20422 0.00000 0.00000 0.00000 ; methylguanidinium ion
12666 7368 7367 7366 3 1.58992 4.76976 0.00000 -6.35968 0.00000 0.00000
12666 7368 7367 7369 3 1.58992 4.76976 0.00000 -6.35968 0.00000 0.00000
12666 7368 7367 7370 3 1.58992 4.76976 0.00000 -6.35968 0.00000 0.00000
12671 12664 12665 12666 3 33.20422 0.00000 -33.20422 0.00000 0.00000 0.00000 ; methylguanidinium ion
12671 12664 12665 12669 3 20.50160 0.00000 -20.50160 0.00000 0.00000 0.00000 ; imides
12672 12655 12656 12657 3 33.20422 0.00000 -33.20422 0.00000 0.00000 0.00000 ; methylguanidinium ion
12672 12655 12656 12663 3 30.28798 -4.81160 -25.47638 0.00000 0.00000 0.00000 ; imides
12681 12682 12689 12690 3 30.28798 -4.81160 -25.47638 0.00000 0.00000 0.00000 ; imides
12681 12698 12699 12700 3 33.20422 0.00000 -33.20422 0.00000 0.00000 0.00000 ; methylguanidinium ion
12681 12698 12699 12703 3 20.50160 0.00000 -20.50160 0.00000 0.00000 0.00000 ; imides
12682 12681 12698 12697 3 30.28798 -4.81160 -25.47638 0.00000 0.00000 0.00000 ; imides
12682 12681 12698 12699 3 33.20422 0.00000 -33.20422 0.00000 0.00000 0.00000 ; methylguanidinium ion
12682 12689 12690 12691 3 33.20422 0.00000 -33.20422 0.00000 0.00000 0.00000 ; methylguanidinium ion
12682 12689 12690 12697 3 30.28798 -4.81160 -25.47638 0.00000 0.00000 0.00000 ; imides
12683 12682 12689 12690 3 33.20422 0.00000 -33.20422 0.00000 0.00000 0.00000 ; methylguanidinium ion
12684 8558 8557 8556 3 1.58992 4.76976 0.00000 -6.35968 0.00000 0.00000
12684 8558 8557 8559 3 1.58992 4.76976 0.00000 -6.35968 0.00000 0.00000
12684 8558 8557 8560 3 1.58992 4.76976 0.00000 -6.35968 0.00000 0.00000
12689 12682 12683 12684 3 33.20422 0.00000 -33.20422 0.00000 0.00000 0.00000 ; methylguanidinium ion
12689 12682 12683 12687 3 20.50160 0.00000 -20.50160 0.00000 0.00000 0.00000 ; imides
12689 12690 12697 12698 3 30.28798 -4.81160 -25.47638 0.00000 0.00000 0.00000 ; imides
12690 12697 12698 12681 3 30.28798 -4.81160 -25.47638 0.00000 0.00000 0.00000 ; imides
12690 12697 12698 12699 3 33.20422 0.00000 -33.20422 0.00000 0.00000 0.00000 ; methylguanidinium ion
12691 12690 12697 12698 3 33.20422 0.00000 -33.20422 0.00000 0.00000 0.00000 ; methylguanidinium ion
12692 9536 9535 9534 3 1.58992 4.76976 0.00000 -6.35968 0.00000 0.00000
12692 9536 9535 9537 3 1.58992 4.76976 0.00000 -6.35968 0.00000 0.00000
12692 9536 9535 9538 3 1.58992 4.76976 0.00000 -6.35968 0.00000 0.00000
12697 12690 12691 12692 3 33.20422 0.00000 -33.20422 0.00000 0.00000 0.00000 ; methylguanidinium ion
12697 12690 12691 12695 3 20.50160 0.00000 -20.50160 0.00000 0.00000 0.00000 ; imides
12698 12681 12682 12683 3 33.20422 0.00000 -33.20422 0.00000 0.00000 0.00000 ; methylguanidinium ion
12698 12681 12682 12689 3 30.28798 -4.81160 -25.47638 0.00000 0.00000 0.00000 ; imides
12700 3931 3930 3929 3 1.58992 4.76976 0.00000 -6.35968 0.00000 0.00000
12700 3931 3930 3932 3 1.58992 4.76976 0.00000 -6.35968 0.00000 0.00000
12700 3931 3930 3933 3 1.58992 4.76976 0.00000 -6.35968 0.00000 0.00000
12705 12706 12713 12714 3 30.28798 -4.81160 -25.47638 0.00000 0.00000 0.00000 ; imides
12705 12722 12723 12724 3 33.20422 0.00000 -33.20422 0.00000 0.00000 0.00000 ; methylguanidinium ion
12705 12722 12723 12727 3 20.50160 0.00000 -20.50160 0.00000 0.00000 0.00000 ; imides
12706 12705 12722 12721 3 30.28798 -4.81160 -25.47638 0.00000 0.00000 0.00000 ; imides
12706 12705 12722 12723 3 33.20422 0.00000 -33.20422 0.00000 0.00000 0.00000 ; methylguanidinium ion
12706 12713 12714 12715 3 33.20422 0.00000 -33.20422 0.00000 0.00000 0.00000 ; methylguanidinium ion
12706 12713 12714 12721 3 30.28798 -4.81160 -25.47638 0.00000 0.00000 0.00000 ; imides
12707 12706 12713 12714 3 33.20422 0.00000 -33.20422 0.00000 0.00000 0.00000 ; methylguanidinium ion
12708 9493 9492 9491 3 1.58992 4.76976 0.00000 -6.35968 0.00000 0.00000
12708 9493 9492 9494 3 1.58992 4.76976 0.00000 -6.35968 0.00000 0.00000
12708 9493 9492 9495 3 1.58992 4.76976 0.00000 -6.35968 0.00000 0.00000
12713 12706 12707 12708 3 33.20422 0.00000 -33.20422 0.00000 0.00000 0.00000 ; methylguanidinium ion
12713 12706 12707 12711 3 20.50160 0.00000 -20.50160 0.00000 0.00000 0.00000 ; imides
12713 12714 12721 12722 3 30.28798 -4.81160 -25.47638 0.00000 0.00000 0.00000 ; imides
12714 12721 12722 12705 3 30.28798 -4.81160 -25.47638 0.00000 0.00000 0.00000 ; imides
12714 12721 12722 12723 3 33.20422 0.00000 -33.20422 0.00000 0.00000 0.00000 ; methylguanidinium ion
12715 12714 12721 12722 3 33.20422 0.00000 -33.20422 0.00000 0.00000 0.00000 ; methylguanidinium ion
12716 5702 5701 5700 3 1.58992 4.76976 0.00000 -6.35968 0.00000 0.00000
12716 5702 5701 5703 3 1.58992 4.76976 0.00000 -6.35968 0.00000 0.00000
12716 5702 5701 5704 3 1.58992 4.76976 0.00000 -6.35968 0.00000 0.00000
12721 12714 12715 12716 3 33.20422 0.00000 -33.20422 0.00000 0.00000 0.00000 ; methylguanidinium ion
12721 12714 12715 12719 3 20.50160 0.00000 -20.50160 0.00000 0.00000 0.00000 ; imides
12722 12705 12706 12707 3 33.20422 0.00000 -33.20422 0.00000 0.00000 0.00000 ; methylguanidinium ion
12722 12705 12706 12713 3 30.28798 -4.81160 -25.47638 0.00000 0.00000 0.00000 ; imides
12724 5537 5536 5535 3 1.58992 4.76976 0.00000 -6.35968 0.00000 0.00000
12724 5537 5536 5538 3 1.58992 4.76976 0.00000 -6.35968 0.00000 0.00000
12724 5537 5536 5539 3 1.58992 4.76976 0.00000 -6.35968 0.00000 0.00000
12729 12730 12737 12738 3 30.28798 -4.81160 -25.47638 0.00000 0.00000 0.00000 ; imides
12729 12746 12747 12748 3 33.20422 0.00000 -33.20422 0.00000 0.00000 0.00000 ; methylguanidinium ion
12729 12746 12747 12751 3 20.50160 0.00000 -20.50160 0.00000 0.00000 0.00000 ; imides
12730 12729 12746 12745 3 30.28798 -4.81160 -25.47638 0.00000 0.00000 0.00000 ; imides
12730 12729 12746 12747 3 33.20422 0.00000 -33.20422 0.00000 0.00000 0.00000 ; methylguanidinium ion
12730 12737 12738 12739 3 33.20422 0.00000 -33.20422 0.00000 0.00000 0.00000 ; methylguanidinium ion
12730 12737 12738 12745 3 30.28798 -4.81160 -25.47638 0.00000 0.00000 0.00000 ; imides
12731 12730 12737 12738 3 33.20422 0.00000 -33.20422 0.00000 0.00000 0.00000 ; methylguanidinium ion
12732 7636 7635 7634 3 1.58992 4.76976 0.00000 -6.35968 0.00000 0.00000
12732 7636 7635 7637 3 1.58992 4.76976 0.00000 -6.35968 0.00000 0.00000
12732 7636 7635 7638 3 1.58992 4.76976 0.00000 -6.35968 0.00000 0.00000
12737 12730 12731 12732 3 33.20422 0.00000 -33.20422 0.00000 0.00000 0.00000 ; methylguanidinium ion
12737 12730 12731 12735 3 20.50160 0.00000 -20.50160 0.00000 0.00000 0.00000 ; imides
12737 12738 12745 12746 3 30.28798 -4.81160 -25.47638 0.00000 0.00000 0.00000 ; imides
12738 12745 12746 12729 3 30.28798 -4.81160 -25.47638 0.00000 0.00000 0.00000 ; imides
12738 12745 12746 12747 3 33.20422 0.00000 -33.20422 0.00000 0.00000 0.00000 ; methylguanidinium ion
12739 12738 12745 12746 3 33.20422 0.00000 -33.20422 0.00000 0.00000 0.00000 ; methylguanidinium ion
12740 3993 3992 3991 3 1.58992 4.76976 0.00000 -6.35968 0.00000 0.00000
12740 3993 3992 3994 3 1.58992 4.76976 0.00000 -6.35968 0.00000 0.00000
12740 3993 3992 3995 3 1.58992 4.76976 0.00000 -6.35968 0.00000 0.00000
12745 12738 12739 12740 3 33.20422 0.00000 -33.20422 0.00000 0.00000 0.00000 ; methylguanidinium ion
12745 12738 12739 12743 3 20.50160 0.00000 -20.50160 0.00000 0.00000 0.00000 ; imides
12746 12729 12730 12731 3 33.20422 0.00000 -33.20422 0.00000 0.00000 0.00000 ; methylguanidinium ion
12746 12729 12730 12737 3 30.28798 -4.81160 -25.47638 0.00000 0.00000 0.00000 ; imides
12748 10809 10808 10807 3 1.58992 4.76976 0.00000 -6.35968 0.00000 0.00000
12748 10809 10808 10810 3 1.58992 4.76976 0.00000 -6.35968 0.00000 0.00000
12748 10809 10808 10811 3 1.58992 4.76976 0.00000 -6.35968 0.00000 0.00000
12753 12754 12761 12762 3 30.28798 -4.81160 -25.47638 0.00000 0.00000 0.00000 ; imides
12753 12770 12771 12772 3 33.20422 0.00000 -33.20422 0.00000 0.00000 0.00000 ; methylguanidinium ion
12753 12770 12771 12775 3 20.50160 0.00000 -20.50160 0.00000 0.00000 0.00000 ; imides
12754 12753 12770 12769 3 30.28798 -4.81160 -25.47638 0.00000 0.00000 0.00000 ; imides
12754 12753 12770 12771 3 33.20422 0.00000 -33.20422 0.00000 0.00000 0.00000 ; methylguanidinium ion
12754 12761 12762 12763 3 33.20422 0.00000 -33.20422 0.00000 0.00000 0.00000 ; methylguanidinium ion
12754 12761 12762 12769 3 30.28798 -4.81160 -25.47638 0.00000 0.00000 0.00000 ; imides
12755 12754 12761 12762 3 33.20422 0.00000 -33.20422 0.00000 0.00000 0.00000 ; methylguanidinium ion
12756 4981 4980 4979 3 1.58992 4.76976 0.00000 -6.35968 0.00000 0.00000
12756 4981 4980 4982 3 1.58992 4.76976 0.00000 -6.35968 0.00000 0.00000
12756 4981 4980 4983 3 1.58992 4.76976 0.00000 -6.35968 0.00000 0.00000
12761 12754 12755 12756 3 33.20422 0.00000 -33.20422 0.00000 0.00000 0.00000 ; methylguanidinium ion
12761 12754 12755 12759 3 20.50160 0.00000 -20.50160 0.00000 0.00000 0.00000 ; imides
12761 12762 12769 12770 3 30.28798 -4.81160 -25.47638 0.00000 0.00000 0.00000 ; imides
12762 12769 12770 12753 3 30.28798 -4.81160 -25.47638 0.00000 0.00000 0.00000 ; imides
12762 12769 12770 12771 3 33.20422 0.00000 -33.20422 0.00000 0.00000 0.00000 ; methylguanidinium ion
12763 12762 12769 12770 3 33.20422 0.00000 -33.20422 0.00000 0.00000 0.00000 ; methylguanidinium ion
12764 11711 11710 11709 3 1.58992 4.76976 0.00000 -6.35968 0.00000 0.00000
12764 11711 11710 11712 3 1.58992 4.76976 0.00000 -6.35968 0.00000 0.00000
12764 11711 11710 11713 3 1.58992 4.76976 0.00000 -6.35968 0.00000 0.00000
12769 12762 12763 12764 3 33.20422 0.00000 -33.20422 0.00000 0.00000 0.00000 ; methylguanidinium ion
12769 12762 12763 12767 3 20.50160 0.00000 -20.50160 0.00000 0.00000 0.00000 ; imides
12770 12753 12754 12755 3 33.20422 0.00000 -33.20422 0.00000 0.00000 0.00000 ; methylguanidinium ion
12770 12753 12754 12761 3 30.28798 -4.81160 -25.47638 0.00000 0.00000 0.00000 ; imides
12772 9098 9097 9096 3 1.58992 4.76976 0.00000 -6.35968 0.00000 0.00000
12772 9098 9097 9099 3 1.58992 4.76976 0.00000 -6.35968 0.00000 0.00000
12772 9098 9097 9100 3 1.58992 4.76976 0.00000 -6.35968 0.00000 0.00000
12777 12778 12785 12786 3 30.28798 -4.81160 -25.47638 0.00000 0.00000 0.00000 ; imides
12777 12794 12795 12796 3 33.20422 0.00000 -33.20422 0.00000 0.00000 0.00000 ; methylguanidinium ion
12777 12794 12795 12799 3 20.50160 0.00000 -20.50160 0.00000 0.00000 0.00000 ; imides
12778 12777 12794 12793 3 30.28798 -4.81160 -25.47638 0.00000 0.00000 0.00000 ; imides
12778 12777 12794 12795 3 33.20422 0.00000 -33.20422 0.00000 0.00000 0.00000 ; methylguanidinium ion
12778 12785 12786 12787 3 33.20422 0.00000 -33.20422 0.00000 0.00000 0.00000 ; methylguanidinium ion
12778 12785 12786 12793 3 30.28798 -4.81160 -25.47638 0.00000 0.00000 0.00000 ; imides
12779 12778 12785 12786 3 33.20422 0.00000 -33.20422 0.00000 0.00000 0.00000 ; methylguanidinium ion
12780 7168 7167 7166 3 1.58992 4.76976 0.00000 -6.35968 0.00000 0.00000
12780 7168 7167 7169 3 1.58992 4.76976 0.00000 -6.35968 0.00000 0.00000
12780 7168 7167 7170 3 1.58992 4.76976 0.00000 -6.35968 0.00000 0.00000
12785 12778 12779 12780 3 33.20422 0.00000 -33.20422 0.00000 0.00000 0.00000 ; methylguanidinium ion
12785 12778 12779 12783 3 20.50160 0.00000 -20.50160 0.00000 0.00000 0.00000 ; imides
12785 12786 12793 12794 3 30.28798 -4.81160 -25.47638 0.00000 0.00000 0.00000 ; imides
12786 12793 12794 12777 3 30.28798 -4.81160 -25.47638 0.00000 0.00000 0.00000 ; imides
12786 12793 12794 12795 3 33.20422 0.00000 -33.20422 0.00000 0.00000 0.00000 ; methylguanidinium ion
12787 12786 12793 12794 3 33.20422 0.00000 -33.20422 0.00000 0.00000 0.00000 ; methylguanidinium ion
12788 4594 4593 4592 3 1.58992 4.76976 0.00000 -6.35968 0.00000 0.00000
12788 4594 4593 4595 3 1.58992 4.76976 0.00000 -6.35968 0.00000 0.00000
12788 4594 4593 4596 3 1.58992 4.76976 0.00000 -6.35968 0.00000 0.00000
12793 12786 12787 12788 3 33.20422 0.00000 -33.20422 0.00000 0.00000 0.00000 ; methylguanidinium ion
12793 12786 12787 12791 3 20.50160 0.00000 -20.50160 0.00000 0.00000 0.00000 ; imides
12794 12777 12778 12779 3 33.20422 0.00000 -33.20422 0.00000 0.00000 0.00000 ; methylguanidinium ion
12794 12777 12778 12785 3 30.28798 -4.81160 -25.47638 0.00000 0.00000 0.00000 ; imides
12796 1199 1198 1197 3 1.58992 4.76976 0.00000 -6.35968 0.00000 0.00000
12796 1199 1198 1200 3 1.58992 4.76976 0.00000 -6.35968 0.00000 0.00000
12796 1199 1198 1201 3 1.58992 4.76976 0.00000 -6.35968 0.00000 0.00000
12801 12802 12809 12810 3 30.28798 -4.81160 -25.47638 0.00000 0.00000 0.00000 ; imides
12801 12818 12819 12820 3 33.20422 0.00000 -33.20422 0.00000 0.00000 0.00000 ; methylguanidinium ion
12801 12818 12819 12823 3 20.50160 0.00000 -20.50160 0.00000 0.00000 0.00000 ; imides
12802 12801 12818 12817 3 30.28798 -4.81160 -25.47638 0.00000 0.00000 0.00000 ; imides
12802 12801 12818 12819 3 33.20422 0.00000 -33.20422 0.00000 0.00000 0.00000 ; methylguanidinium ion
12802 12809 12810 12811 3 33.20422 0.00000 -33.20422 0.00000 0.00000 0.00000 ; methylguanidinium ion
12802 12809 12810 12817 3 30.28798 -4.81160 -25.47638 0.00000 0.00000 0.00000 ; imides
12803 12802 12809 12810 3 33.20422 0.00000 -33.20422 0.00000 0.00000 0.00000 ; methylguanidinium ion
12804 1397 1396 1395 3 1.58992 4.76976 0.00000 -6.35968 0.00000 0.00000
12804 1397 1396 1398 3 1.58992 4.76976 0.00000 -6.35968 0.00000 0.00000
12804 1397 1396 1399 3 1.58992 4.76976 0.00000 -6.35968 0.00000 0.00000
12809 12802 12803 12804 3 33.20422 0.00000 -33.20422 0.00000 0.00000 0.00000 ; methylguanidinium ion
12809 12802 12803 12807 3 20.50160 0.00000 -20.50160 0.00000 0.00000 0.00000 ; imides
12809 12810 12817 12818 3 30.28798 -4.81160 -25.47638 0.00000 0.00000 0.00000 ; imides
12810 12817 12818 12801 3 30.28798 -4.81160 -25.47638 0.00000 0.00000 0.00000 ; imides
12810 12817 12818 12819 3 33.20422 0.00000 -33.20422 0.00000 0.00000 0.00000 ; methylguanidinium ion
12811 12810 12817 12818 3 33.20422 0.00000 -33.20422 0.00000 0.00000 0.00000 ; methylguanidinium ion
12812 10869 10868 10867 3 1.58992 4.76976 0.00000 -6.35968 0.00000 0.00000
12812 10869 10868 10870 3 1.58992 4.76976 0.00000 -6.35968 0.00000 0.00000
12812 10869 10868 10871 3 1.58992 4.76976 0.00000 -6.35968 0.00000 0.00000
12817 12810 12811 12812 3 33.20422 0.00000 -33.20422 0.00000 0.00000 0.00000 ; methylguanidinium ion
12817 12810 12811 12815 3 20.50160 0.00000 -20.50160 0.00000 0.00000 0.00000 ; imides
12818 12801 12802 12803 3 33.20422 0.00000 -33.20422 0.00000 0.00000 0.00000 ; methylguanidinium ion
12818 12801 12802 12809 3 30.28798 -4.81160 -25.47638 0.00000 0.00000 0.00000 ; imides
12820 1639 1638 1637 3 1.58992 4.76976 0.00000 -6.35968 0.00000 0.00000
12820 1639 1638 1640 3 1.58992 4.76976 0.00000 -6.35968 0.00000 0.00000
12820 1639 1638 1641 3 1.58992 4.76976 0.00000 -6.35968 0.00000 0.00000
12825 12826 12833 12834 3 30.28798 -4.81160 -25.47638 0.00000 0.00000 0.00000 ; imides
12825 12844 12845 12846 3 33.20422 0.00000 -33.20422 0.00000 0.00000 0.00000 ; methylguanidinium ion
12825 12844 12845 12849 3 20.50160 0.00000 -20.50160 0.00000 0.00000 0.00000 ; imides
12826 12825 12844 12843 3 30.28798 -4.81160 -25.47638 0.00000 0.00000 0.00000 ; imides
12826 12825 12844 12845 3 33.20422 0.00000 -33.20422 0.00000 0.00000 0.00000 ; methylguanidinium ion
12826 12833 12834 12835 3 33.20422 0.00000 -33.20422 0.00000 0.00000 0.00000 ; methylguanidinium ion
12826 12833 12834 12843 3 30.28798 -4.81160 -25.47638 0.00000 0.00000 0.00000 ; imides
12827 12826 12833 12834 3 33.20422 0.00000 -33.20422 0.00000 0.00000 0.00000 ; methylguanidinium ion
12828 9938 9937 9936 3 1.58992 4.76976 0.00000 -6.35968 0.00000 0.00000
12828 9938 9937 9939 3 1.58992 4.76976 0.00000 -6.35968 0.00000 0.00000
12828 9938 9937 9940 3 1.58992 4.76976 0.00000 -6.35968 0.00000 0.00000
12833 12826 12827 12828 3 33.20422 0.00000 -33.20422 0.00000 0.00000 0.00000 ; methylguanidinium ion
12833 12826 12827 12831 3 20.50160 0.00000 -20.50160 0.00000 0.00000 0.00000 ; imides
12833 12834 12843 12844 3 30.28798 -4.81160 -25.47638 0.00000 0.00000 0.00000 ; imides
12834 12843 12844 12825 3 30.28798 -4.81160 -25.47638 0.00000 0.00000 0.00000 ; imides
12834 12843 12844 12845 3 33.20422 0.00000 -33.20422 0.00000 0.00000 0.00000 ; methylguanidinium ion
12835 12834 12843 12844 3 33.20422 0.00000 -33.20422 0.00000 0.00000 0.00000 ; methylguanidinium ion
12843 12834 12835 12836 3 33.20422 0.00000 -33.20422 0.00000 0.00000 0.00000 ; methylguanidinium ion
12843 12834 12835 12841 3 20.50160 0.00000 -20.50160 0.00000 0.00000 0.00000 ; imides
12844 12825 12826 12827 3 33.20422 0.00000 -33.20422 0.00000 0.00000 0.00000 ; methylguanidinium ion
12844 12825 12826 12833 3 30.28798 -4.81160 -25.47638 0.00000 0.00000 0.00000 ; imides
12846 10037 10036 10035 3 1.58992 4.76976 0.00000 -6.35968 0.00000 0.00000
12846 10037 10036 10038 3 1.58992 4.76976 0.00000 -6.35968 0.00000 0.00000
12846 10037 10036 10039 3 1.58992 4.76976 0.00000 -6.35968 0.00000 0.00000
12851 12852 12859 12860 3 30.28798 -4.81160 -25.47638 0.00000 0.00000 0.00000 ; imides
12851 12870 12871 12872 3 33.20422 0.00000 -33.20422 0.00000 0.00000 0.00000 ; methylguanidinium ion
12851 12870 12871 12877 3 20.50160 0.00000 -20.50160 0.00000 0.00000 0.00000 ; imides
12852 12851 12870 12869 3 30.28798 -4.81160 -25.47638 0.00000 0.00000 0.00000 ; imides
12852 12851 12870 12871 3 33.20422 0.00000 -33.20422 0.00000 0.00000 0.00000 ; methylguanidinium ion
12852 12859 12860 12861 3 33.20422 0.00000 -33.20422 0.00000 0.00000 0.00000 ; methylguanidinium ion
12852 12859 12860 12869 3 30.28798 -4.81160 -25.47638 0.00000 0.00000 0.00000 ; imides
12853 12852 12859 12860 3 33.20422 0.00000 -33.20422 0.00000 0.00000 0.00000 ; methylguanidinium ion
12854 391 390 389 3 1.58992 4.76976 0.00000 -6.35968 0.00000 0.00000
12854 391 390 392 3 1.58992 4.76976 0.00000 -6.35968 0.00000 0.00000
12854 391 390 393 3 1.58992 4.76976 0.00000 -6.35968 0.00000 0.00000
12859 12852 12853 12854 3 33.20422 0.00000 -33.20422 0.00000 0.00000 0.00000 ; methylguanidinium ion
12859 12852 12853 12857 3 20.50160 0.00000 -20.50160 0.00000 0.00000 0.00000 ; imides
12859 12860 12869 12870 3 30.28798 -4.81160 -25.47638 0.00000 0.00000 0.00000 ; imides
12860 12869 12870 12851 3 30.28798 -4.81160 -25.47638 0.00000 0.00000 0.00000 ; imides
12860 12869 12870 12871 3 33.20422 0.00000 -33.20422 0.00000 0.00000 0.00000 ; methylguanidinium ion
12861 12860 12869 12870 3 33.20422 0.00000 -33.20422 0.00000 0.00000 0.00000 ; methylguanidinium ion
12869 12860 12861 12862 3 33.20422 0.00000 -33.20422 0.00000 0.00000 0.00000 ; methylguanidinium ion
12869 12860 12861 12867 3 20.50160 0.00000 -20.50160 0.00000 0.00000 0.00000 ; imides
12870 12851 12852 12853 3 33.20422 0.00000 -33.20422 0.00000 0.00000 0.00000 ; methylguanidinium ion
12870 12851 12852 12859 3 30.28798 -4.81160 -25.47638 0.00000 0.00000 0.00000 ; imides
12879 12880 12887 12888 3 30.28798 -4.81160 -25.47638 0.00000 0.00000 0.00000 ; imides
12879 12896 12897 12898 3 33.20422 0.00000 -33.20422 0.00000 0.00000 0.00000 ; methylguanidinium ion
12879 12896 12897 12901 3 20.50160 0.00000 -20.50160 0.00000 0.00000 0.00000 ; imides
12880 12879 12896 12895 3 30.28798 -4.81160 -25.47638 0.00000 0.00000 0.00000 ; imides
12880 12879 12896 12897 3 33.20422 0.00000 -33.20422 0.00000 0.00000 0.00000 ; methylguanidinium ion
12880 12887 12888 12889 3 33.20422 0.00000 -33.20422 0.00000 0.00000 0.00000 ; methylguanidinium ion
12880 12887 12888 12895 3 30.28798 -4.81160 -25.47638 0.00000 0.00000 0.00000 ; imides
12881 12880 12887 12888 3 33.20422 0.00000 -33.20422 0.00000 0.00000 0.00000 ; methylguanidinium ion
12882 7645 7644 7643 3 1.58992 4.76976 0.00000 -6.35968 0.00000 0.00000
12882 7645 7644 7646 3 1.58992 4.76976 0.00000 -6.35968 0.00000 0.00000
12882 7645 7644 7647 3 1.58992 4.76976 0.00000 -6.35968 0.00000 0.00000
12887 12880 12881 12882 3 33.20422 0.00000 -33.20422 0.00000 0.00000 0.00000 ; methylguanidinium ion
12887 12880 12881 12885 3 20.50160 0.00000 -20.50160 0.00000 0.00000 0.00000 ; imides
12887 12888 12895 12896 3 30.28798 -4.81160 -25.47638 0.00000 0.00000 0.00000 ; imides
12888 12895 12896 12879 3 30.28798 -4.81160 -25.47638 0.00000 0.00000 0.00000 ; imides
12888 12895 12896 12897 3 33.20422 0.00000 -33.20422 0.00000 0.00000 0.00000 ; methylguanidinium ion
12889 12888 12895 12896 3 33.20422 0.00000 -33.20422 0.00000 0.00000 0.00000 ; methylguanidinium ion
12890 1621 1620 1619 3 1.58992 4.76976 0.00000 -6.35968 0.00000 0.00000
12890 1621 1620 1622 3 1.58992 4.76976 0.00000 -6.35968 0.00000 0.00000
12890 1621 1620 1623 3 1.58992 4.76976 0.00000 -6.35968 0.00000 0.00000
12895 12888 12889 12890 3 33.20422 0.00000 -33.20422 0.00000 0.00000 0.00000 ; methylguanidinium ion
12895 12888 12889 12893 3 20.50160 0.00000 -20.50160 0.00000 0.00000 0.00000 ; imides
12896 12879 12880 12881 3 33.20422 0.00000 -33.20422 0.00000 0.00000 0.00000 ; methylguanidinium ion
12896 12879 12880 12887 3 30.28798 -4.81160 -25.47638 0.00000 0.00000 0.00000 ; imides
12898 1009 1008 1007 3 1.58992 4.76976 0.00000 -6.35968 0.00000 0.00000
12898 1009 1008 1010 3 1.58992 4.76976 0.00000 -6.35968 0.00000 0.00000
12898 1009 1008 1011 3 1.58992 4.76976 0.00000 -6.35968 0.00000 0.00000
12903 12904 12913 12914 3 30.28798 -4.81160 -25.47638 0.00000 0.00000 0.00000 ; imides
12903 12922 12923 12924 3 33.20422 0.00000 -33.20422 0.00000 0.00000 0.00000 ; methylguanidinium ion
12903 12922 12923 12927 3 20.50160 0.00000 -20.50160 0.00000 0.00000 0.00000 ; imides
12904 12903 12922 12921 3 30.28798 -4.81160 -25.47638 0.00000 0.00000 0.00000 ; imides
12904 12903 12922 12923 3 33.20422 0.00000 -33.20422 0.00000 0.00000 0.00000 ; methylguanidinium ion
12904 12913 12914 12915 3 33.20422 0.00000 -33.20422 0.00000 0.00000 0.00000 ; methylguanidinium ion
12904 12913 12914 12921 3 30.28798 -4.81160 -25.47638 0.00000 0.00000 0.00000 ; imides
12905 12904 12913 12914 3 33.20422 0.00000 -33.20422 0.00000 0.00000 0.00000 ; methylguanidinium ion
12913 12904 12905 12906 3 33.20422 0.00000 -33.20422 0.00000 0.00000 0.00000 ; methylguanidinium ion
12913 12904 12905 12911 3 20.50160 0.00000 -20.50160 0.00000 0.00000 0.00000 ; imides
12913 12914 12921 12922 3 30.28798 -4.81160 -25.47638 0.00000 0.00000 0.00000 ; imides
12914 12921 12922 12903 3 30.28798 -4.81160 -25.47638 0.00000 0.00000 0.00000 ; imides
12914 12921 12922 12923 3 33.20422 0.00000 -33.20422 0.00000 0.00000 0.00000 ; methylguanidinium ion
12915 12914 12921 12922 3 33.20422 0.00000 -33.20422 0.00000 0.00000 0.00000 ; methylguanidinium ion
12916 3219 3218 3217 3 1.58992 4.76976 0.00000 -6.35968 0.00000 0.00000
12916 3219 3218 3220 3 1.58992 4.76976 0.00000 -6.35968 0.00000 0.00000
12916 3219 3218 3221 3 1.58992 4.76976 0.00000 -6.35968 0.00000 0.00000
12921 12914 12915 12916 3 33.20422 0.00000 -33.20422 0.00000 0.00000 0.00000 ; methylguanidinium ion
12921 12914 12915 12919 3 20.50160 0.00000 -20.50160 0.00000 0.00000 0.00000 ; imides
12922 12903 12904 12905 3 33.20422 0.00000 -33.20422 0.00000 0.00000 0.00000 ; methylguanidinium ion
12922 12903 12904 12913 3 30.28798 -4.81160 -25.47638 0.00000 0.00000 0.00000 ; imides
12924 3736 3735 3734 3 1.58992 4.76976 0.00000 -6.35968 0.00000 0.00000
12924 3736 3735 3737 3 1.58992 4.76976 0.00000 -6.35968 0.00000 0.00000
12924 3736 3735 3738 3 1.58992 4.76976 0.00000 -6.35968 0.00000 0.00000
12929 12930 12937 12938 3 30.28798 -4.81160 -25.47638 0.00000 0.00000 0.00000 ; imides
12929 12946 12947 12948 3 33.20422 0.00000 -33.20422 0.00000 0.00000 0.00000 ; methylguanidinium ion
12929 12946 12947 12951 3 20.50160 0.00000 -20.50160 0.00000 0.00000 0.00000 ; imides
12930 12929 12946 12945 3 30.28798 -4.81160 -25.47638 0.00000 0.00000 0.00000 ; imides
12930 12929 12946 12947 3 33.20422 0.00000 -33.20422 0.00000 0.00000 0.00000 ; methylguanidinium ion
12930 12937 12938 12939 3 33.20422 0.00000 -33.20422 0.00000 0.00000 0.00000 ; methylguanidinium ion
12930 12937 12938 12945 3 30.28798 -4.81160 -25.47638 0.00000 0.00000 0.00000 ; imides
12931 12930 12937 12938 3 33.20422 0.00000 -33.20422 0.00000 0.00000 0.00000 ; methylguanidinium ion
12932 6432 6431 6430 3 1.58992 4.76976 0.00000 -6.35968 0.00000 0.00000
12932 6432 6431 6433 3 1.58992 4.76976 0.00000 -6.35968 0.00000 0.00000
12932 6432 6431 6434 3 1.58992 4.76976 0.00000 -6.35968 0.00000 0.00000
12937 12930 12931 12932 3 33.20422 0.00000 -33.20422 0.00000 0.00000 0.00000 ; methylguanidinium ion
12937 12930 12931 12935 3 20.50160 0.00000 -20.50160 0.00000 0.00000 0.00000 ; imides
12937 12938 12945 12946 3 30.28798 -4.81160 -25.47638 0.00000 0.00000 0.00000 ; imides
12938 12945 12946 12929 3 30.28798 -4.81160 -25.47638 0.00000 0.00000 0.00000 ; imides
12938 12945 12946 12947 3 33.20422 0.00000 -33.20422 0.00000 0.00000 0.00000 ; methylguanidinium ion
12939 12938 12945 12946 3 33.20422 0.00000 -33.20422 0.00000 0.00000 0.00000 ; methylguanidinium ion
12940 7565 7564 7563 3 1.58992 4.76976 0.00000 -6.35968 0.00000 0.00000
12940 7565 7564 7566 3 1.58992 4.76976 0.00000 -6.35968 0.00000 0.00000
12940 7565 7564 7567 3 1.58992 4.76976 0.00000 -6.35968 0.00000 0.00000
12945 12938 12939 12940 3 33.20422 0.00000 -33.20422 0.00000 0.00000 0.00000 ; methylguanidinium ion
12945 12938 12939 12943 3 20.50160 0.00000 -20.50160 0.00000 0.00000 0.00000 ; imides
12946 12929 12930 12931 3 33.20422 0.00000 -33.20422 0.00000 0.00000 0.00000 ; methylguanidinium ion
12946 12929 12930 12937 3 30.28798 -4.81160 -25.47638 0.00000 0.00000 0.00000 ; imides
12948 8246 8245 8244 3 1.58992 4.76976 0.00000 -6.35968 0.00000 0.00000
12948 8246 8245 8247 3 1.58992 4.76976 0.00000 -6.35968 0.00000 0.00000
12948 8246 8245 8248 3 1.58992 4.76976 0.00000 -6.35968 0.00000 0.00000
12953 12954 12961 12962 3 30.28798 -4.81160 -25.47638 0.00000 0.00000 0.00000 ; imides
12953 12970 12971 12972 3 33.20422 0.00000 -33.20422 0.00000 0.00000 0.00000 ; methylguanidinium ion
12953 12970 12971 12975 3 20.50160 0.00000 -20.50160 0.00000 0.00000 0.00000 ; imides
12954 12953 12970 12969 3 30.28798 -4.81160 -25.47638 0.00000 0.00000 0.00000 ; imides
12954 12953 12970 12971 3 33.20422 0.00000 -33.20422 0.00000 0.00000 0.00000 ; methylguanidinium ion
12954 12961 12962 12963 3 33.20422 0.00000 -33.20422 0.00000 0.00000 0.00000 ; methylguanidinium ion
12954 12961 12962 12969 3 30.28798 -4.81160 -25.47638 0.00000 0.00000 0.00000 ; imides
12955 12954 12961 12962 3 33.20422 0.00000 -33.20422 0.00000 0.00000 0.00000 ; methylguanidinium ion
12956 2210 2209 2208 3 1.58992 4.76976 0.00000 -6.35968 0.00000 0.00000
12956 2210 2209 2211 3 1.58992 4.76976 0.00000 -6.35968 0.00000 0.00000
12956 2210 2209 2212 3 1.58992 4.76976 0.00000 -6.35968 0.00000 0.00000
12961 12954 12955 12956 3 33.20422 0.00000 -33.20422 0.00000 0.00000 0.00000 ; methylguanidinium ion
12961 12954 12955 12959 3 20.50160 0.00000 -20.50160 0.00000 0.00000 0.00000 ; imides
12961 12962 12969 12970 3 30.28798 -4.81160 -25.47638 0.00000 0.00000 0.00000 ; imides
12962 12969 12970 12953 3 30.28798 -4.81160 -25.47638 0.00000 0.00000 0.00000 ; imides
12962 12969 12970 12971 3 33.20422 0.00000 -33.20422 0.00000 0.00000 0.00000 ; methylguanidinium ion
12963 12962 12969 12970 3 33.20422 0.00000 -33.20422 0.00000 0.00000 0.00000 ; methylguanidinium ion
12964 4160 4159 4158 3 1.58992 4.76976 0.00000 -6.35968 0.00000 0.00000
12964 4160 4159 4161 3 1.58992 4.76976 0.00000 -6.35968 0.00000 0.00000
12964 4160 4159 4162 3 1.58992 4.76976 0.00000 -6.35968 0.00000 0.00000
12969 12962 12963 12964 3 33.20422 0.00000 -33.20422 0.00000 0.00000 0.00000 ; methylguanidinium ion
12969 12962 12963 12967 3 20.50160 0.00000 -20.50160 0.00000 0.00000 0.00000 ; imides
12970 12953 12954 12955 3 33.20422 0.00000 -33.20422 0.00000 0.00000 0.00000 ; methylguanidinium ion
12970 12953 12954 12961 3 30.28798 -4.81160 -25.47638 0.00000 0.00000 0.00000 ; imides
12972 11907 11906 11905 3 1.58992 4.76976 0.00000 -6.35968 0.00000 0.00000
12972 11907 11906 11908 3 1.58992 4.76976 0.00000 -6.35968 0.00000 0.00000
12972 11907 11906 11909 3 1.58992 4.76976 0.00000 -6.35968 0.00000 0.00000

[ cross_pairs ]
2 12 1
2 23 1
2 27 1
3 13 1
3 20 1
3 22 1
4 12 1
4 21 1
11 5 1
11 9 1
11 21 1
12 22 1
13 21 1
20 14 1
20 18 1
29 39 1
29 51 1
29 56 1
30 40 1
30 48 1
30 50 1
31 39 1
31 49 1
38 32 1
38 36 1
38 49 1
39 50 1
40 49 1
48 41 1
48 46 1
58 68 1
58 79 1
58 83 1
59 69 1
59 76 1
59 78 1
60 68 1
60 77 1
67 61 1
67 65 1
67 77 1
68 78 1
69 77 1
76 70 1
76 74 1
85 95 1
85 107 1
85 111 1
86 96 1
86 104 1
86 106 1
87 95 1
87 105 1
94 88 1
94 92 1
94 105 1
95 106 1
96 105 1
104 97 1
104 102 1
113 123 1
113 134 1
113 138 1
114 124 1
114 131 1
114 133 1
115 123 1
115 132 1
122 116 1
122 120 1
122 132 1
123 133 1
124 132 1
131 125 1
131 129 1
140 150 1
140 161 1
140 165 1
141 151 1
141 158 1
141 160 1
142 150 1
142 159 1
149 143 1
149 147 1
149 159 1
150 160 1
151 159 1
158 152 1
158 156 1
167 177 1
167 188 1
167 192 1
168 178 1
168 185 1
168 187 1
169 177 1
169 186 1
176 170 1
176 174 1
176 186 1
177 187 1
178 186 1
185 179 1
185 183 1
194 204 1
194 215 1
194 220 1
195 205 1
195 212 1
195 214 1
196 204 1
196 213 1
203 197 1
203 201 1
203 213 1
204 214 1
205 213 1
212 206 1
212 210 1
222 232 1
222 243 1
222 247 1
223 233 1
223 240 1
223 242 1
224 232 1
224 241 1
231 225 1
231 229 1
231 241 1
232 242 1
233 241 1
240 234 1
240 238 1
249 260 1
249 271 1
249 275 1
250 261 1
250 268 1
250 270 1
251 260 1
251 269 1
259 252 1
259 257 1
259 269 1
260 270 1
261 269 1
268 262 1
268 266 1
277 287 1
277 298 1
277 302 1
278 288 1
278 295 1
278 297 1
279 287 1
279 296 1
286 280 1
286 284 1
286 296 1
287 297 1
288 296 1
295 289 1
295 293 1
304 314 1
304 325 1
304 329 1
305 315 1
305 322 1
305 324 1
306 314 1
306 323 1
313 307 1
313 311 1
313 323 1
314 324 1
315 323 1
322 316 1
322 320 1
331 341 1
331 353 1
331 357 1
332 342 1
332 350 1
332 352 1
333 341 1
333 351 1
340 334 1
340 338 1
340 351 1
341 352 1
342 351 1
350 343 1
350 348 1
359 369 1
359 381 1
359 385 1
360 370 1
360 378 1
360 380 1
361 369 1
361 379 1
368 362 1
368 366 1
368 379 1
369 380 1
370 379 1
378 371 1
378 376 1
387 397 1
387 409 1
387 413 1
388 398 1
388 406 1
388 408 1
389 397 1
389 407 1
396 390 1
396 394 1
396 407 1
397 408 1
398 407 1
406 399 1
406 404 1
415 425 1
415 436 1
415 440 1
416 426 1
416 433 1
416 435 1
417 425 1
417 434 1
424 418 1
424 422 1
424 434 1
425 435 1
426 434 1
433 427 1
433 431 1
442 452 1
442 463 1
442 467 1
443 453 1
443 460 1
443 462 1
444 452 1
444 461 1
451 445 1
451 449 1
451 461 1
452 462 1
453 461 1
460 454 1
460 458 1
469 479 1
469 490 1
469 494 1
470 480 1
470 487 1
470 489 1
471 479 1
471 488 1
478 472 1
478 476 1
478 488 1
479 489 1
480 488 1
487 481 1
487 485 1
496 506 1
496 517 1
496 521 1
497 507 1
497 514 1
497 516 1
498 506 1
498 515 1
505 499 1
505 503 1
505 515 1
506 516 1
507 515 1
514 508 1
514 512 1
523 532 1
523 543 1
523 547 1
524 533 1
524 540 1
524 542 1
525 532 1
525 541 1
531 526 1
531 529 1
531 541 1
532 542 1
533 541 1
540 534 1
540 538 1
549 559 1
549 571 1
549 575 1
550 560 1
550 568 1
550 570 1
551 559 1
551 569 1
558 552 1
558 556 1
558 569 1
559 570 1
560 569 1
568 561 1
568 566 1
577 587 1
577 598 1
577 602 1
578 588 1
578 595 1
578 597 1
579 587 1
579 596 1
586 580 1
586 584 1
586 596 1
587 597 1
588 596 1
595 589 1
595 593 1
604 614 1
604 626 1
604 630 1
605 615 1
605 623 1
605 625 1
606 614 1
606 624 1
613 607 1
613 611 1
613 624 1
614 625 1
615 624 1
623 616 1
623 621 1
632 642 1
632 653 1
632 657 1
633 643 1
633 650 1
633 652 1
634 642 1
634 651 1
641 635 1
641 639 1
641 651 1
642 652 1
643 651 1
650 644 1
650 648 1
659 669 1
659 680 1
659 684 1
660 670 1
660 677 1
660 679 1
661 669 1
661 678 1
668 662 1
668 666 1
668 678 1
669 679 1
670 678 1
677 671 1
677 675 1
686 697 1
686 708 1
686 712 1
687 698 1
687 705 1
687 707 1
688 697 1
688 706 1
696 689 1
696 694 1
696 706 1
697 707 1
698 706 1
705 699 1
705 703 1
714 724 1
714 734 1
714 738 1
715 725 1
715 731 1
715 733 1
716 724 1
716 732 1
723 717 1
723 721 1
723 732 1
724 733 1
725 732 1
731 726 1
731 729 1
740 750 1
740 762 1
740 767 1
741 751 1
741 759 1
741 761 1
742 750 1
742 760 1
749 743 1
749 747 1
749 760 1
750 761 1
751 760 1
759 752 1
759 757 1
769 779 1
769 790 1
769 794 1
770 780 1
770 787 1
770 789 1
771 779 1
771 788 1
778 772 1
778 776 1
778 788 1
779 789 1
780 788 1
787 781 1
787 785 1
796 805 1
796 816 1
796 820 1
797 806 1
797 813 1
797 815 1
798 805 1
798 814 1
804 799 1
804 802 1
804 814 1
805 815 1
806 814 1
813 807 1
813 811 1
822 832 1
822 843 1
822 847 1
823 833 1
823 840 1
823 842 1
824 832 1
824 841 1
831 825 1
831 829 1
831 841 1
832 842 1
833 841 1
840 834 1
840 838 1
849 859 1
849 870 1
849 874 1
850 860 1
850 867 1
850 869 1
851 859 1
851 868 1
858 852 1
858 856 1
858 868 1
859 869 1
860 868 1
867 861 1
867 865 1
876 885 1
876 896 1
876 901 1
877 886 1
877 893 1
877 895 1
878 885 1
878 894 1
884 879 1
884 882 1
884 894 1
885 895 1
886 894 1
893 887 1
893 891 1
903 913 1
903 924 1
903 928 1
904 914 1
904 921 1
904 923 1
905 913 1
905 922 1
912 906 1
912 910 1
912 922 1
913 923 1
914 922 1
921 915 1
921 919 1
930 940 1
930 951 1
930 955 1
931 941 1
931 948 1
931 950 1
932 940 1
932 949 1
939 933 1
939 937 1
939 949 1
940 950 1
941 949 1
948 942 1
948 946 1
957 967 1
957 979 1
957 984 1
958 968 1
958 976 1
958 978 1
959 967 1
959 977 1
966 960 1
966 964 1
966 977 1
967 978 1
968 977 1
976 969 1
976 974 1
986 997 1
986 1008 1
986 1012 1
987 998 1
987 1005 1
987 1007 1
988 997 1
988 1006 1
996 989 1
996 994 1
996 1006 1
997 1007 1
998 1006 1
1005 999 1
1005 1003 1
1014 1024 1
1014 1035 1
1014 1039 1
1015 1025 1
1015 1032 1
1015 1034 1
1016 1024 1
1016 1033 1
1023 1017 1
1023 1021 1
1023 1033 1
1024 1034 1
1025 1033 1
1032 1026 1
1032 1030 1
1041 1051 1
1041 1062 1
1041 1066 1
1042 1052 1
1042 1059 1
1042 1061 1
1043 1051 1
1043 1060 1
1050 1044 1
1050 1048 1
1050 1060 1
1051 1061 1
1052 1060 1
1059 1053 1
1059 1057 1
1068 1079 1
1068 1090 1
1068 1095 1
1069 1080 1
1069 1087 1
1069 1089 1
1070 1079 1
1070 1088 1
1078 1071 1
1078 1076 1
1078 1088 1
1079 1089 1
1080 1088 1
1087 1081 1
1087 1085 1
1097 1107 1
1097 1117 1
1097 1121 1
1098 1108 1
1098 1114 1
1098 1116 1
1099 1107 1
1099 1115 1
1106 1100 1
1106 1104 1
1106 1115 1
1107 1116 1
1108 1115 1
1114 1109 1
1114 1112 1
1123 1133 1
1123 1144 1
1123 1148 1
1124 1134 1
1124 1141 1
1124 1143 1
1125 1133 1
1125 1142 1
1132 1126 1
1132 1130 1
1132 1142 1
1133 1143 1
1134 1142 1
1141 1135 1
1141 1139 1
1150 1160 1
1150 1171 1
1150 1175 1
1151 1161 1
1151 1168 1
1151 1170 1
1152 1160 1
1152 1169 1
1159 1153 1
1159 1157 1
1159 1169 1
1160 1170 1
1161 1169 1
1168 1162 1
1168 1166 1
1177 1187 1
1177 1198 1
1177 1202 1
1178 1188 1
1178 1195 1
1178 1197 1
1179 1187 1
1179 1196 1
1186 1180 1
1186 1184 1
1186 1196 1
1187 1197 1
1188 1196 1
1195 1189 1
1195 1193 1
1204 1213 1
1204 1224 1
1204 1228 1
1205 1214 1
1205 1221 1
1205 1223 1
1206 1213 1
1206 1222 1
1212 1207 1
1212 1210 1
1212 1222 1
1213 1223 1
1214 1222 1
1221 1215 1
1221 1219 1
1230 1240 1
1230 1251 1
1230 1255 1
1231 1241 1
1231 1248 1
1231 1250 1
1232 1240 1
1232 1249 1
1239 1233 1
1239 1237 1
1239 1249 1
1240 1250 1
1241 1249 1
1248 1242 1
1248 1246 1
1257 1266 1
1257 1277 1
1257 1282 1
1258 1267 1
1258 1274 1
1258 1276 1
1259 1266 1
1259 1275 1
1265 1260 1
1265 1263 1
1265 1275 1
1266 1276 1
1267 1275 1
1274 1268 1
1274 1272 1
1284 1294 1
1284 1305 1
1284 1309 1
1285 1295 1
1285 1302 1
1285 1304 1
1286 1294 1
1286 1303 1
1293 1287 1
1293 1291 1
1293 1303 1
1294 1304 1
1295 1303 1
1302 1296 1
1302 1300 1
1311 1321 1
1311 1332 1
1311 1336 1
1312 1322 1
1312 1329 1
1312 1331 1
1313 1321 1
1313 1330 1
1320 1314 1
1320 1318 1
1320 1330 1
1321 1331 1
1322 1330 1
1329 1323 1
1329 1327 1
1338 1348 1
1338 1359 1
1338 1364 1
1339 1349 1
1339 1356 1
1339 1358 1
1340 1348 1
1340 1357 1
1347 1341 1
1347 1345 1
1347 1357 1
1348 1358 1
1349 1357 1
1356 1350 1
1356 1354 1
1366 1376 1
1366 1387 1
1366 1391 1
1367 1377 1
1367 1384 1
1367 1386 1
1368 1376 1
1368 1385 1
1375 1369 1
1375 1373 1
1375 1385 1
1376 1386 1
1377 1385 1
1384 1378 1
1384 1382 1
1393 1403 1
1393 1415 1
1393 1419 1
1394 1404 1
1394 1412 1
1394 1414 1
1395 1403 1
1395 1413 1
1402 1396 1
1402 1400 1
1402 1413 1
1403 1414 1
1404 1413 1
1412 1405 1
1412 1410 1
1421 1430 1
1421 1441 1
1421 1445 1
1422 1431 1
1422 1438 1
1422 1440 1
1423 1430 1
1423 1439 1
1429 1424 1
1429 1427 1
1429 1439 1
1430 1440 1
1431 1439 1
1438 1432 1
1438 1436 1
1447 1457 1
1447 1468 1
1447 1472 1
1448 1458 1
1448 1465 1
1448 1467 1
1449 1457 1
1449 1466 1
1456 1450 1
1456 1454 1
1456 1466 1
1457 1467 1
1458 1466 1
1465 1459 1
1465 1463 1
1474 1484 1
1474 1495 1
1474 1499 1
1475 1485 1
1475 1492 1
1475 1494 1
1476 1484 1
1476 1493 1
1483 1477 1
1483 1481 1
1483 1493 1
1484 1494 1
1485 1493 1
1492 1486 1
1492 1490 1
1501 1511 1
1501 1522 1
1501 1526 1
1502 1512 1
1502 1519 1
1502 1521 1
1503 1511 1
1503 1520 1
1510 1504 1
1510 1508 1
1510 1520 1
1511 1521 1
1512 1520 1
1519 1513 1
1519 1517 1
1528 1538 1
1528 1549 1
1528 1553 1
1529 1539 1
1529 1546 1
1529 1548 1
1530 1538 1
1530 1547 1
1537 1531 1
1537 1535 1
1537 1547 1
1538 1548 1
1539 1547 1
1546 1540 1
1546 1544 1
1555 1564 1
1555 1575 1
1555 1579 1
1556 1565 1
1556 1572 1
1556 1574 1
1557 1564 1
1557 1573 1
1563 1558 1
1563 1561 1
1563 1573 1
1564 1574 1
1565 1573 1
1572 1566 1
1572 1570 1
1581 1591 1
1581 1602 1
1581 1606 1
1582 1592 1
1582 1599 1
1582 1601 1
1583 1591 1
1583 1600 1
1590 1584 1
1590 1588 1
1590 1600 1
1591 1601 1
1592 1600 1
1599 1593 1
1599 1597 1
1608 1618 1
1608 1629 1
1608 1633 1
1609 1619 1
1609 1626 1
1609 1628 1
1610 1618 1
1610 1627 1
1617 1611 1
1617 1615 1
1617 1627 1
1618 1628 1
1619 1627 1
1626 1620 1
1626 1624 1
1635 1645 1
1635 1657 1
1635 1661 1
1636 1646 1
1636 1654 1
1636 1656 1
1637 1645 1
1637 1655 1
1644 1638 1
1644 1642 1
1644 1655 1
1645 1656 1
1646 1655 1
1654 1647 1
1654 1652 1
1663 1673 1
1663 1683 1
1663 1687 1
1664 1674 1
1664 1680 1
1664 1682 1
1665 1673 1
1665 1681 1
1672 1666 1
1672 1670 1
1672 1681 1
1673 1682 1
1674 1681 1
1680 1675 1
1680 1678 1
1689 1699 1
1689 1709 1
1689 1712 1
1690 1700 1
1690 1706 1
1690 1708 1
1691 1699 1
1691 1707 1
1698 1692 1
1698 1696 1
1698 1707 1
1699 1708 1
1700 1707 1
1706 1701 1
1706 1704 1
1714 1724 1
1714 1735 1
1714 1739 1
1715 1725 1
1715 1732 1
1715 1734 1
1716 1724 1
1716 1733 1
1723 1717 1
1723 1721 1
1723 1733 1
1724 1734 1
1725 1733 1
1732 1726 1
1732 1730 1
1741 1751 1
1741 1762 1
1741 1767 1
1742 1752 1
1742 1759 1
1742 1761 1
1743 1751 1
1743 1760 1
1750 1744 1
1750 1748 1
1750 1760 1
1751 1761 1
1752 1760 1
1759 1753 1
1759 1757 1
1769 1779 1
1769 1790 1
1769 1794 1
1770 1780 1
1770 1787 1
1770 1789 1
1771 1779 1
1771 1788 1
1778 1772 1
1778 1776 1
1778 1788 1
1779 1789 1
1780 1788 1
1787 1781 1
1787 1785 1
1796 1806 1
1796 1817 1
1796 1821 1
1797 1807 1
1797 1814 1
1797 1816 1
1798 1806 1
1798 1815 1
1805 1799 1
1805 1803 1
1805 1815 1
1806 1816 1
1807 1815 1
1814 1808 1
1814 1812 1
1823 1833 1
1823 1845 1
1823 1849 1
1824 1834 1
1824 1842 1
1824 1844 1
1825 1833 1
1825 1843 1
1832 1826 1
1832 1830 1
1832 1843 1
1833 1844 1
1834 1843 1
1842 1835 1
1842 1840 1
1851 1860 1
1851 1871 1
1851 1875 1
1852 1861 1
1852 1868 1
1852 1870 1
1853 1860 1
1853 1869 1
1859 1854 1
1859 1857 1
1859 1869 1
1860 1870 1
1861 1869 1
1868 1862 1
1868 1866 1
1877 1887 1
1877 1898 1
1877 1902 1
1878 1888 1
1878 1895 1
1878 1897 1
1879 1887 1
1879 1896 1
1886 1880 1
1886 1884 1
1886 1896 1
1887 1897 1
1888 1896 1
1895 1889 1
1895 1893 1
1904 1913 1
1904 1924 1
1904 1927 1
1905 1914 1
1905 1921 1
1905 1923 1
1906 1913 1
1906 1922 1
1912 1907 1
1912 1910 1
1912 1922 1
1913 1923 1
1914 1922 1
1921 1915 1
1921 1919 1
1929 1939 1
1929 1950 1
1929 1954 1
1930 1940 1
1930 1947 1
1930 1949 1
1931 1939 1
1931 1948 1
1938 1932 1
1938 1936 1
1938 1948 1
1939 1949 1
1940 1948 1
1947 1941 1
1947 1945 1
1956 1966 1
1956 1977 1
1956 1981 1
1957 1967 1
1957 1974 1
1957 1976 1
1958 1966 1
1958 1975 1
1965 1959 1
1965 1963 1
1965 1975 1
1966 1976 1
1967 1975 1
1974 1968 1
1974 1972 1
1983 1993 1
1983 2004 1
1983 2008 1
1984 1994 1
1984 2001 1
1984 2003 1
1985 1993 1
1985 2002 1
1992 1986 1
1992 1990 1
1992 2002 1
1993 2003 1
1994 2002 1
2001 1995 1
2001 1999 1
2010 2020 1
2010 2031 1
2010 2035 1
2011 2021 1
2011 2028 1
2011 2030 1
2012 2020 1
2012 2029 1
2019 2013 1
2019 2017 1
2019 2029 1
2020 2030 1
2021 2029 1
2028 2022 1
2028 2026 1
2037 2047 1
2037 2058 1
2037 2062 1
2038 2048 1
2038 2055 1
2038 2057 1
2039 2047 1
2039 2056 1
2046 2040 1
2046 2044 1
2046 2056 1
2047 2057 1
2048 2056 1
2055 2049 1
2055 2053 1
2064 2074 1
2064 2085 1
2064 2088 1
2065 2075 1
2065 2082 1
2065 2084 1
2066 2074 1
2066 2083 1
2073 2067 1
2073 2071 1
2073 2083 1
2074 2084 1
2075 2083 1
2082 2076 1
2082 2080 1
2090 2100 1
2090 2110 1
2090 2113 1
2091 2101 1
2091 2107 1
2091 2109 1
2092 2100 1
2092 2108 1
2099 2093 1
2099 2097 1
2099 2108 1
2100 2109 1
2101 2108 1
2107 2102 1
2107 2105 1
2115 2125 1
2115 2136 1
2115 2140 1
2116 2126 1
2116 2133 1
2116 2135 1
2117 2125 1
2117 2134 1
2124 2118 1
2124 2122 1
2124 2134 1
2125 2135 1
2126 2134 1
2133 2127 1
2133 2131 1
2142 2152 1
2142 2163 1
2142 2167 1
2143 2153 1
2143 2160 1
2143 2162 1
2144 2152 1
2144 2161 1
2151 2145 1
2151 2149 1
2151 2161 1
2152 2162 1
2153 2161 1
2160 2154 1
2160 2158 1
2169 2179 1
2169 2191 1
2169 2195 1
2170 2180 1
2170 2188 1
2170 2190 1
2171 2179 1
2171 2189 1
2178 2172 1
2178 2176 1
2178 2189 1
2179 2190 1
2180 2189 1
2188 2181 1
2188 2186 1
2197 2207 1
2197 2218 1
2197 2223 1
2198 2208 1
2198 2215 1
2198 2217 1
2199 2207 1
2199 2216 1
2206 2200 1
2206 2204 1
2206 2216 1
2207 2217 1
2208 2216 1
2215 2209 1
2215 2213 1
2225 2235 1
2225 2246 1
2225 2250 1
2226 2236 1
2226 2243 1
2226 2245 1
2227 2235 1
2227 2244 1
2234 2228 1
2234 2232 1
2234 2244 1
2235 2245 1
2236 2244 1
2243 2237 1
2243 2241 1
2252 2262 1
2252 2273 1
2252 2277 1
2253 2263 1
2253 2270 1
2253 2272 1
2254 2262 1
2254 2271 1
2261 2255 1
2261 2259 1
2261 2271 1
2262 2272 1
2263 2271 1
2270 2264 1
2270 2268 1
2279 2289 1
2279 2300 1
2279 2304 1
2280 2290 1
2280 2297 1
2280 2299 1
2281 2289 1
2281 2298 1
2288 2282 1
2288 2286 1
2288 2298 1
2289 2299 1
2290 2298 1
2297 2291 1
2297 2295 1
2306 2316 1
2306 2327 1
2306 2331 1
2307 2317 1
2307 2324 1
2307 2326 1
2308 2316 1
2308 2325 1
2315 2309 1
2315 2313 1
2315 2325 1
2316 2326 1
2317 2325 1
2324 2318 1
2324 2322 1
2333 2343 1
2333 2354 1
2333 2359 1
2334 2344 1
2334 2351 1
2334 2353 1
2335 2343 1
2335 2352 1
2342 2336 1
2342 2340 1
2342 2352 1
2343 2353 1
2344 2352 1
2351 2345 1
2351 2349 1
2361 2370 1
2361 2381 1
2361 2385 1
2362 2371 1
2362 2378 1
2362 2380 1
2363 2370 1
2363 2379 1
2369 2364 1
2369 2367 1
2369 2379 1
2370 2380 1
2371 2379 1
2378 2372 1
2378 2376 1
2387 2397 1
2387 2408 1
2387 2412 1
2388 2398 1
2388 2405 1
2388 2407 1
2389 2397 1
2389 2406 1
2396 2390 1
2396 2394 1
2396 2406 1
2397 2407 1
2398 2406 1
2405 2399 1
2405 2403 1
2414 2424 1
2414 2434 1
2414 2438 1
2415 2425 1
2415 2431 1
2415 2433 1
2416 2424 1
2416 2432 1
2423 2417 1
2423 2421 1
2423 2432 1
2424 2433 1
2425 2432 1
2431 2426 1
2431 2429 1
2440 2451 1
2440 2462 1
2440 2466 1
2441 2452 1
2441 2459 1
2441 2461 1
2442 2451 1
2442 2460 1
2450 2443 1
2450 2448 1
2450 2460 1
2451 2461 1
2452 2460 1
2459 2453 1
2459 2457 1
2468 2477 1
2468 2488 1
2468 2492 1
2469 2478 1
2469 2485 1
2469 2487 1
2470 2477 1
2470 2486 1
2476 2471 1
2476 2474 1
2476 2486 1
2477 2487 1
2478 2486 1
2485 2479 1
2485 2483 1
2494 2504 1
2494 2515 1
2494 2519 1
2495 2505 1
2495 2512 1
2495 2514 1
2496 2504 1
2496 2513 1
2503 2497 1
2503 2501 1
2503 2513 1
2504 2514 1
2505 2513 1
2512 2506 1
2512 2510 1
2521 2531 1
2521 2541 1
2521 2545 1
2522 2532 1
2522 2538 1
2522 2540 1
2523 2531 1
2523 2539 1
2530 2524 1
2530 2528 1
2530 2539 1
2531 2540 1
2532 2539 1
2538 2533 1
2538 2536 1
2547 2557 1
2547 2568 1
2547 2572 1
2548 2558 1
2548 2565 1
2548 2567 1
2549 2557 1
2549 2566 1
2556 2550 1
2556 2554 1
2556 2566 1
2557 2567 1
2558 2566 1
2565 2559 1
2565 2563 1
2574 2585 1
2574 2597 1
2574 2601 1
2575 2586 1
2575 2594 1
2575 2596 1
2576 2585 1
2576 2595 1
2584 2577 1
2584 2582 1
2584 2595 1
2585 2596 1
2586 2595 1
2594 2587 1
2594 2592 1
2603 2613 1
2603 2624 1
2603 2628 1
2604 2614 1
2604 2621 1
2604 2623 1
2605 2613 1
2605 2622 1
2612 2606 1
2612 2610 1
2612 2622 1
2613 2623 1
2614 2622 1
2621 2615 1
2621 2619 1
2630 2639 1
2630 2650 1
2630 2654 1
2631 2640 1
2631 2647 1
2631 2649 1
2632 2639 1
2632 2648 1
2638 2633 1
2638 2636 1
2638 2648 1
2639 2649 1
2640 2648 1
2647 2641 1
2647 2645 1
2656 2666 1
2656 2677 1
2656 2682 1
2657 2667 1
2657 2674 1
2657 2676 1
2658 2666 1
2658 2675 1
2665 2659 1
2665 2663 1
2665 2675 1
2666 2676 1
2667 2675 1
2674 2668 1
2674 2672 1
2684 2694 1
2684 2704 1
2684 2707 1
2685 2695 1
2685 2701 1
2685 2703 1
2686 2694 1
2686 2702 1
2693 2687 1
2693 2691 1
2693 2702 1
2694 2703 1
2695 2702 1
2701 2696 1
2701 2699 1
2709 2719 1
2709 2730 1
2709 2733 1
2710 2720 1
2710 2727 1
2710 2729 1
2711 2719 1
2711 2728 1
2718 2712 1
2718 2716 1
2718 2728 1
2719 2729 1
2720 2728 1
2727 2721 1
2727 2725 1
2735 2745 1
2735 2756 1
2735 2761 1
2736 2746 1
2736 2753 1
2736 2755 1
2737 2745 1
2737 2754 1
2744 2738 1
2744 2742 1
2744 2754 1
2745 2755 1
2746 2754 1
2753 2747 1
2753 2751 1
2763 2773 1
2763 2784 1
2763 2787 1
2764 2774 1
2764 2781 1
2764 2783 1
2765 2773 1
2765 2782 1
2772 2766 1
2772 2770 1
2772 2782 1
2773 2783 1
2774 2782 1
2781 2775 1
2781 2779 1
2789 2799 1
2789 2810 1
2789 2814 1
2790 2800 1
2790 2807 1
2790 2809 1
2791 2799 1
2791 2808 1
2798 2792 1
2798 2796 1
2798 2808 1
2799 2809 1
2800 2808 1
2807 2801 1
2807 2805 1
2816 2826 1
2816 2836 1
2816 2840 1
2817 2827 1
2817 2833 1
2817 2835 1
2818 2826 1
2818 2834 1
2825 2819 1
2825 2823 1
2825 2834 1
2826 2835 1
2827 2834 1
2833 2828 1
2833 2831 1
2842 2852 1
2842 2862 1
2842 2866 1
2843 2853 1
2843 2859 1
2843 2861 1
2844 2852 1
2844 2860 1
2851 2845 1
2851 2849 1
2851 2860 1
2852 2861 1
2853 2860 1
2859 2854 1
2859 2857 1
2868 2877 1
2868 2887 1
2868 2890 1
2869 2878 1
2869 2884 1
2869 2886 1
2870 2877 1
2870 2885 1
2876 2871 1
2876 2874 1
2876 2885 1
2877 2886 1
2878 2885 1
2884 2879 1
2884 2882 1
2892 2902 1
2892 2912 1
2892 2916 1
2893 2903 1
2893 2909 1
2893 2911 1
2894 2902 1
2894 2910 1
2901 2895 1
2901 2899 1
2901 2910 1
2902 2911 1
2903 2910 1
2909 2904 1
2909 2907 1
2918 2928 1
2918 2939 1
2918 2943 1
2919 2929 1
2919 2936 1
2919 2938 1
2920 2928 1
2920 2937 1
2927 2921 1
2927 2925 1
2927 2937 1
2928 2938 1
2929 2937 1
2936 2930 1
2936 2934 1
2945 2955 1
2945 2966 1
2945 2970 1
2946 2956 1
2946 2963 1
2946 2965 1
2947 2955 1
2947 2964 1
2954 2948 1
2954 2952 1
2954 2964 1
2955 2965 1
2956 2964 1
2963 2957 1
2963 2961 1
2972 2982 1
2972 2993 1
2972 2997 1
2973 2983 1
2973 2990 1
2973 2992 1
2974 2982 1
2974 2991 1
2981 2975 1
2981 2979 1
2981 2991 1
2982 2992 1
2983 2991 1
2990 2984 1
2990 2988 1
2999 3009 1
2999 3019 1
2999 3022 1
3000 3010 1
3000 3016 1
3000 3018 1
3001 3009 1
3001 3017 1
3008 3002 1
3008 3006 1
3008 3017 1
3009 3018 1
3010 3017 1
3016 3011 1
3016 3014 1
3024 3033 1
3024 3044 1
3024 3047 1
3025 3034 1
3025 3041 1
3025 3043 1
3026 3033 1
3026 3042 1
3032 3027 1
3032 3030 1
3032 3042 1
3033 3043 1
3034 3042 1
3041 3035 1
3041 3039 1
3049 3058 1
3049 3069 1
3049 3073 1
3050 3059 1
3050 3066 1
3050 3068 1
3051 3058 1
3051 3067 1
3057 3052 1
3057 3055 1
3057 3067 1
3058 3068 1
3059 3067 1
3066 3060 1
3066 3064 1
3075 3085 1
3075 3097 1
3075 3101 1
3076 3086 1
3076 3094 1
3076 3096 1
3077 3085 1
3077 3095 1
3084 3078 1
3084 3082 1
3084 3095 1
3085 3096 1
3086 3095 1
3094 3087 1
3094 3092 1
3103 3112 1
3103 3123 1
3103 3127 1
3104 3113 1
3104 3120 1
3104 3122 1
3105 3112 1
3105 3121 1
3111 3106 1
3111 3109 1
3111 3121 1
3112 3122 1
3113 3121 1
3120 3114 1
3120 3118 1
3129 3139 1
3129 3149 1
3129 3152 1
3130 3140 1
3130 3146 1
3130 3148 1
3131 3139 1
3131 3147 1
3138 3132 1
3138 3136 1
3138 3147 1
3139 3148 1
3140 3147 1
3146 3141 1
3146 3144 1
3154 3163 1
3154 3174 1
3154 3177 1
3155 3164 1
3155 3171 1
3155 3173 1
3156 3163 1
3156 3172 1
3162 3157 1
3162 3160 1
3162 3172 1
3163 3173 1
3164 3172 1
3171 3165 1
3171 3169 1
3179 3189 1
3179 3201 1
3179 3205 1
3180 3190 1
3180 3198 1
3180 3200 1
3181 3189 1
3181 3199 1
3188 3182 1
3188 3186 1
3188 3199 1
3189 3200 1
3190 3199 1
3198 3191 1
3198 3196 1
3207 3216 1
3207 3227 1
3207 3230 1
3208 3217 1
3208 3224 1
3208 3226 1
3209 3216 1
3209 3225 1
3215 3210 1
3215 3213 1
3215 3225 1
3216 3226 1
3217 3225 1
3224 3218 1
3224 3222 1
3232 3242 1
3232 3254 1
3232 3258 1
3233 3243 1
3233 3251 1
3233 3253 1
3234 3242 1
3234 3252 1
3241 3235 1
3241 3239 1
3241 3252 1
3242 3253 1
3243 3252 1
3251 3244 1
3251 3249 1
3260 3270 1
3260 3281 1
3260 3285 1
3261 3271 1
3261 3278 1
3261 3280 1
3262 3270 1
3262 3279 1
3269 3263 1
3269 3267 1
3269 3279 1
3270 3280 1
3271 3279 1
3278 3272 1
3278 3276 1
3287 3297 1
3287 3308 1
3287 3312 1
3288 3298 1
3288 3305 1
3288 3307 1
3289 3297 1
3289 3306 1
3296 3290 1
3296 3294 1
3296 3306 1
3297 3307 1
3298 3306 1
3305 3299 1
3305 3303 1
3314 3323 1
3314 3334 1
3314 3338 1
3315 3324 1
3315 3331 1
3315 3333 1
3316 3323 1
3316 3332 1
3322 3317 1
3322 3320 1
3322 3332 1
3323 3333 1
3324 3332 1
3331 3325 1
3331 3329 1
3340 3351 1
3340 3363 1
3340 3367 1
3341 3352 1
3341 3360 1
3341 3362 1
3342 3351 1
3342 3361 1
3350 3343 1
3350 3348 1
3350 3361 1
3351 3362 1
3352 3361 1
3360 3353 1
3360 3358 1
3369 3379 1
3369 3391 1
3369 3395 1
3370 3380 1
3370 3388 1
3370 3390 1
3371 3379 1
3371 3389 1
3378 3372 1
3378 3376 1
3378 3389 1
3379 3390 1
3380 3389 1
3388 3381 1
3388 3386 1
3397 3407 1
3397 3418 1
3397 3422 1
3398 3408 1
3398 3415 1
3398 3417 1
3399 3407 1
3399 3416 1
3406 3400 1
3406 3404 1
3406 3416 1
3407 3417 1
3408 3416 1
3415 3409 1
3415 3413 1
3424 3434 1
3424 3445 1
3424 3449 1
3425 3435 1
3425 3442 1
3425 3444 1
3426 3434 1
3426 3443 1
3433 3427 1
3433 3431 1
3433 3443 1
3434 3444 1
3435 3443 1
3442 3436 1
3442 3440 1
3451 3461 1
3451 3473 1
3451 3477 1
3452 3462 1
3452 3470 1
3452 3472 1
3453 3461 1
3453 3471 1
3460 3454 1
3460 3458 1
3460 3471 1
3461 3472 1
3462 3471 1
3470 3463 1
3470 3468 1
3479 3489 1
3479 3500 1
3479 3504 1
3480 3490 1
3480 3497 1
3480 3499 1
3481 3489 1
3481 3498 1
3488 3482 1
3488 3486 1
3488 3498 1
3489 3499 1
3490 3498 1
3497 3491 1
3497 3495 1
3506 3515 1
3506 3526 1
3506 3530 1
3507 3516 1
3507 3523 1
3507 3525 1
3508 3515 1
3508 3524 1
3514 3509 1
3514 3512 1
3514 3524 1
3515 3525 1
3516 3524 1
3523 3517 1
3523 3521 1
3532 3542 1
3532 3553 1
3532 3557 1
3533 3543 1
3533 3550 1
3533 3552 1
3534 3542 1
3534 3551 1
3541 3535 1
3541 3539 1
3541 3551 1
3542 3552 1
3543 3551 1
3550 3544 1
3550 3548 1
3559 3569 1
3559 3579 1
3559 3582 1
3560 3570 1
3560 3576 1
3560 3578 1
3561 3569 1
3561 3577 1
3568 3562 1
3568 3566 1
3568 3577 1
3569 3578 1
3570 3577 1
3576 3571 1
3576 3574 1
3584 3594 1
3584 3604 1
3584 3607 1
3585 3595 1
3585 3601 1
3585 3603 1
3586 3594 1
3586 3602 1
3593 3587 1
3593 3591 1
3593 3602 1
3594 3603 1
3595 3602 1
3601 3596 1
3601 3599 1
3609 3619 1
3609 3629 1
3609 3633 1
3610 3620 1
3610 3626 1
3610 3628 1
3611 3619 1
3611 3627 1
3618 3612 1
3618 3616 1
3618 3627 1
3619 3628 1
3620 3627 1
3626 3621 1
3626 3624 1
3635 3644 1
3635 3655 1
3635 3658 1
3636 3645 1
3636 3652 1
3636 3654 1
3637 3644 1
3637 3653 1
3643 3638 1
3643 3641 1
3643 3653 1
3644 3654 1
3645 3653 1
3652 3646 1
3652 3650 1
3660 3671 1
3660 3682 1
3660 3686 1
3661 3672 1
3661 3679 1
3661 3681 1
3662 3671 1
3662 3680 1
3670 3663 1
3670 3668 1
3670 3680 1
3671 3681 1
3672 3680 1
3679 3673 1
3679 3677 1
3688 3698 1
3688 3709 1
3688 3712 1
3689 3699 1
3689 3706 1
3689 3708 1
3690 3698 1
3690 3707 1
3697 3691 1
3697 3695 1
3697 3707 1
3698 3708 1
3699 3707 1
3706 3700 1
3706 3704 1
3714 3724 1
3714 3735 1
3714 3739 1
3715 3725 1
3715 3732 1
3715 3734 1
3716 3724 1
3716 3733 1
3723 3717 1
3723 3721 1
3723 3733 1
3724 3734 1
3725 3733 1
3732 3726 1
3732 3730 1
3741 3751 1
3741 3761 1
3741 3765 1
3742 3752 1
3742 3758 1
3742 3760 1
3743 3751 1
3743 3759 1
3750 3744 1
3750 3748 1
3750 3759 1
3751 3760 1
3752 3759 1
3758 3753 1
3758 3756 1
3767 3778 1
3767 3789 1
3767 3793 1
3768 3779 1
3768 3786 1
3768 3788 1
3769 3778 1
3769 3787 1
3777 3770 1
3777 3775 1
3777 3787 1
3778 3788 1
3779 3787 1
3786 3780 1
3786 3784 1
3795 3804 1
3795 3815 1
3795 3818 1
3796 3805 1
3796 3812 1
3796 3814 1
3797 3804 1
3797 3813 1
3803 3798 1
3803 3801 1
3803 3813 1
3804 3814 1
3805 3813 1
3812 3806 1
3812 3810 1
3820 3830 1
3820 3840 1
3820 3844 1
3821 3831 1
3821 3837 1
3821 3839 1
3822 3830 1
3822 3838 1
3829 3823 1
3829 3827 1
3829 3838 1
3830 3839 1
3831 3838 1
3837 3832 1
3837 3835 1
3846 3856 1
3846 3867 1
3846 3870 1
3847 3857 1
3847 3864 1
3847 3866 1
3848 3856 1
3848 3865 1
3855 3849 1
3855 3853 1
3855 3865 1
3856 3866 1
3857 3865 1
3864 3858 1
3864 3862 1
3872 3882 1
3872 3894 1
3872 3898 1
3873 3883 1
3873 3891 1
3873 3893 1
3874 3882 1
3874 3892 1
3881 3875 1
3881 3879 1
3881 3892 1
3882 3893 1
3883 3892 1
3891 3884 1
3891 3889 1
3900 3911 1
3900 3921 1
3900 3925 1
3901 3912 1
3901 3918 1
3901 3920 1
3902 3911 1
3902 3919 1
3910 3903 1
3910 3908 1
3910 3919 1
3911 3920 1
3912 3919 1
3918 3913 1
3918 3916 1
3927 3937 1
3927 3948 1
3927 3952 1
3928 3938 1
3928 3945 1
3928 3947 1
3929 3937 1
3929 3946 1
3936 3930 1
3936 3934 1
3936 3946 1
3937 3947 1
3938 3946 1
3945 3939 1
3945 3943 1
3954 3964 1
3954 3976 1
3954 3979 1
3955 3965 1
3955 3973 1
3955 3975 1
3956 3964 1
3956 3974 1
3963 3957 1
3963 3961 1
3963 3974 1
3964 3975 1
3965 3974 1
3973 3966 1
3973 3971 1
3981 3990 1
3981 4001 1
3981 4005 1
3982 3991 1
3982 3998 1
3982 4000 1
3983 3990 1
3983 3999 1
3989 3984 1
3989 3987 1
3989 3999 1
3990 4000 1
3991 3999 1
3998 3992 1
3998 3996 1
4007 4017 1
4007 4028 1
4007 4032 1
4008 4018 1
4008 4025 1
4008 4027 1
4009 4017 1
4009 4026 1
4016 4010 1
4016 4014 1
4016 4026 1
4017 4027 1
4018 4026 1
4025 4019 1
4025 4023 1
4034 4044 1
4034 4054 1
4034 4058 1
4035 4045 1
4035 4051 1
4035 4053 1
4036 4044 1
4036 4052 1
4043 4037 1
4043 4041 1
4043 4052 1
4044 4053 1
4045 4052 1
4051 4046 1
4051 4049 1
4060 4070 1
4060 4080 1
4060 4083 1
4061 4071 1
4061 4077 1
4061 4079 1
4062 4070 1
4062 4078 1
4069 4063 1
4069 4067 1
4069 4078 1
4070 4079 1
4071 4078 1
4077 4072 1
4077 4075 1
4085 4096 1
4085 4107 1
4085 4111 1
4086 4097 1
4086 4104 1
4086 4106 1
4087 4096 1
4087 4105 1
4095 4088 1
4095 4093 1
4095 4105 1
4096 4106 1
4097 4105 1
4104 4098 1
4104 4102 1
4113 4123 1
4113 4134 1
4113 4137 1
4114 4124 1
4114 4131 1
4114 4133 1
4115 4123 1
4115 4132 1
4122 4116 1
4122 4120 1
4122 4132 1
4123 4133 1
4124 4132 1
4131 4125 1
4131 4129 1
4139 4149 1
4139 4159 1
4139 4163 1
4140 4150 1
4140 4156 1
4140 4158 1
4141 4149 1
4141 4157 1
4148 4142 1
4148 4146 1
4148 4157 1
4149 4158 1
4150 4157 1
4156 4151 1
4156 4154 1
4165 4174 1
4165 4186 1
4165 4190 1
4166 4175 1
4166 4183 1
4166 4185 1
4167 4174 1
4167 4184 1
4173 4168 1
4173 4171 1
4173 4184 1
4174 4185 1
4175 4184 1
4183 4176 1
4183 4181 1
4192 4203 1
4192 4214 1
4192 4218 1
4193 4204 1
4193 4211 1
4193 4213 1
4194 4203 1
4194 4212 1
4202 4195 1
4202 4200 1
4202 4212 1
4203 4213 1
4204 4212 1
4211 4205 1
4211 4209 1
4220 4231 1
4220 4242 1
4220 4246 1
4221 4232 1
4221 4239 1
4221 4241 1
4222 4231 1
4222 4240 1
4230 4223 1
4230 4228 1
4230 4240 1
4231 4241 1
4232 4240 1
4239 4233 1
4239 4237 1
4248 4258 1
4248 4270 1
4248 4274 1
4249 4259 1
4249 4267 1
4249 4269 1
4250 4258 1
4250 4268 1
4257 4251 1
4257 4255 1
4257 4268 1
4258 4269 1
4259 4268 1
4267 4260 1
4267 4265 1
4276 4285 1
4276 4297 1
4276 4301 1
4277 4286 1
4277 4294 1
4277 4296 1
4278 4285 1
4278 4295 1
4284 4279 1
4284 4282 1
4284 4295 1
4285 4296 1
4286 4295 1
4294 4287 1
4294 4292 1
4303 4313 1
4303 4323 1
4303 4327 1
4304 4314 1
4304 4320 1
4304 4322 1
4305 4313 1
4305 4321 1
4312 4306 1
4312 4310 1
4312 4321 1
4313 4322 1
4314 4321 1
4320 4315 1
4320 4318 1
4329 4338 1
4329 4349 1
4329 4353 1
4330 4339 1
4330 4346 1
4330 4348 1
4331 4338 1
4331 4347 1
4337 4332 1
4337 4335 1
4337 4347 1
4338 4348 1
4339 4347 1
4346 4340 1
4346 4344 1
4355 4364 1
4355 4374 1
4355 4377 1
4356 4365 1
4356 4371 1
4356 4373 1
4357 4364 1
4357 4372 1
4363 4358 1
4363 4361 1
4363 4372 1
4364 4373 1
4365 4372 1
4371 4366 1
4371 4369 1
4379 4389 1
4379 4400 1
4379 4405 1
4380 4390 1
4380 4397 1
4380 4399 1
4381 4389 1
4381 4398 1
4388 4382 1
4388 4386 1
4388 4398 1
4389 4399 1
4390 4398 1
4397 4391 1
4397 4395 1
4407 4417 1
4407 4428 1
4407 4432 1
4408 4418 1
4408 4425 1
4408 4427 1
4409 4417 1
4409 4426 1
4416 4410 1
4416 4414 1
4416 4426 1
4417 4427 1
4418 4426 1
4425 4419 1
4425 4423 1
4434 4444 1
4434 4455 1
4434 4459 1
4435 4445 1
4435 4452 1
4435 4454 1
4436 4444 1
4436 4453 1
4443 4437 1
4443 4441 1
4443 4453 1
4444 4454 1
4445 4453 1
4452 4446 1
4452 4450 1
4461 4471 1
4461 4482 1
4461 4486 1
4462 4472 1
4462 4479 1
4462 4481 1
4463 4471 1
4463 4480 1
4470 4464 1
4470 4468 1
4470 4480 1
4471 4481 1
4472 4480 1
4479 4473 1
4479 4477 1
4488 4497 1
4488 4508 1
4488 4511 1
4489 4498 1
4489 4505 1
4489 4507 1
4490 4497 1
4490 4506 1
4496 4491 1
4496 4494 1
4496 4506 1
4497 4507 1
4498 4506 1
4505 4499 1
4505 4503 1
4513 4523 1
4513 4533 1
4513 4537 1
4514 4524 1
4514 4530 1
4514 4532 1
4515 4523 1
4515 4531 1
4522 4516 1
4522 4520 1
4522 4531 1
4523 4532 1
4524 4531 1
4530 4525 1
4530 4528 1
4539 4548 1
4539 4558 1
4539 4562 1
4540 4549 1
4540 4555 1
4540 4557 1
4541 4548 1
4541 4556 1
4547 4542 1
4547 4545 1
4547 4556 1
4548 4557 1
4549 4556 1
4555 4550 1
4555 4553 1
4564 4574 1
4564 4584 1
4564 4588 1
4565 4575 1
4565 4581 1
4565 4583 1
4566 4574 1
4566 4582 1
4573 4567 1
4573 4571 1
4573 4582 1
4574 4583 1
4575 4582 1
4581 4576 1
4581 4579 1
4590 4600 1
4590 4611 1
4590 4614 1
4591 4601 1
4591 4608 1
4591 4610 1
4592 4600 1
4592 4609 1
4599 4593 1
4599 4597 1
4599 4609 1
4600 4610 1
4601 4609 1
4608 4602 1
4608 4606 1
4616 4626 1
4616 4638 1
4616 4642 1
4617 4627 1
4617 4635 1
4617 4637 1
4618 4626 1
4618 4636 1
4625 4619 1
4625 4623 1
4625 4636 1
4626 4637 1
4627 4636 1
4635 4628 1
4635 4633 1
4644 4654 1
4644 4665 1
4644 4669 1
4645 4655 1
4645 4662 1
4645 4664 1
4646 4654 1
4646 4663 1
4653 4647 1
4653 4651 1
4653 4663 1
4654 4664 1
4655 4663 1
4662 4656 1
4662 4660 1
4671 4681 1
4671 4692 1
4671 4695 1
4672 4682 1
4672 4689 1
4672 4691 1
4673 4681 1
4673 4690 1
4680 4674 1
4680 4678 1
4680 4690 1
4681 4691 1
4682 4690 1
4689 4683 1
4689 4687 1
4697 4707 1
4697 4717 1
4697 4721 1
4698 4708 1
4698 4714 1
4698 4716 1
4699 4707 1
4699 4715 1
4706 4700 1
4706 4704 1
4706 4715 1
4707 4716 1
4708 4715 1
4714 4709 1
4714 4712 1
4723 4733 1
4723 4744 1
4723 4749 1
4724 4734 1
4724 4741 1
4724 4743 1
4725 4733 1
4725 4742 1
4732 4726 1
4732 4730 1
4732 4742 1
4733 4743 1
4734 4742 1
4741 4735 1
4741 4739 1
4751 4761 1
4751 4772 1
4751 4776 1
4752 4762 1
4752 4769 1
4752 4771 1
4753 4761 1
4753 4770 1
4760 4754 1
4760 4758 1
4760 4770 1
4761 4771 1
4762 4770 1
4769 4763 1
4769 4767 1
4778 4788 1
4778 4799 1
4778 4802 1
4779 4789 1
4779 4796 1
4779 4798 1
4780 4788 1
4780 4797 1
4787 4781 1
4787 4785 1
4787 4797 1
4788 4798 1
4789 4797 1
4796 4790 1
4796 4794 1
4804 4814 1
4804 4825 1
4804 4829 1
4805 4815 1
4805 4822 1
4805 4824 1
4806 4814 1
4806 4823 1
4813 4807 1
4813 4811 1
4813 4823 1
4814 4824 1
4815 4823 1
4822 4816 1
4822 4820 1
4831 4840 1
4831 4850 1
4831 4854 1
4832 4841 1
4832 4847 1
4832 4849 1
4833 4840 1
4833 4848 1
4839 4834 1
4839 4837 1
4839 4848 1
4840 4849 1
4841 4848 1
4847 4842 1
4847 4845 1
4856 4866 1
4856 4876 1
4856 4880 1
4857 4867 1
4857 4873 1
4857 4875 1
4858 4866 1
4858 4874 1
4865 4859 1
4865 4863 1
4865 4874 1
4866 4875 1
4867 4874 1
4873 4868 1
4873 4871 1
4882 4892 1
4882 4903 1
4882 4907 1
4883 4893 1
4883 4900 1
4883 4902 1
4884 4892 1
4884 4901 1
4891 4885 1
4891 4889 1
4891 4901 1
4892 4902 1
4893 4901 1
4900 4894 1
4900 4898 1
4909 4918 1
4909 4928 1
4909 4932 1
4910 4919 1
4910 4925 1
4910 4927 1
4911 4918 1
4911 4926 1
4917 4912 1
4917 4915 1
4917 4926 1
4918 4927 1
4919 4926 1
4925 4920 1
4925 4923 1
4934 4944 1
4934 4956 1
4934 4959 1
4935 4945 1
4935 4953 1
4935 4955 1
4936 4944 1
4936 4954 1
4943 4937 1
4943 4941 1
4943 4954 1
4944 4955 1
4945 4954 1
4953 4946 1
4953 4951 1
4961 4970 1
4961 4980 1
4961 4984 1
4962 4971 1
4962 4977 1
4962 4979 1
4963 4970 1
4963 4978 1
4969 4964 1
4969 4967 1
4969 4978 1
4970 4979 1
4971 4978 1
4977 4972 1
4977 4975 1
4986 4996 1
4986 5007 1
4986 5012 1
4987 4997 1
4987 5004 1
4987 5006 1
4988 4996 1
4988 5005 1
4995 4989 1
4995 4993 1
4995 5005 1
4996 5006 1
4997 5005 1
5004 4998 1
5004 5002 1
5014 5024 1
5014 5034 1
5014 5038 1
5015 5025 1
5015 5031 1
5015 5033 1
5016 5024 1
5016 5032 1
5023 5017 1
5023 5021 1
5023 5032 1
5024 5033 1
5025 5032 1
5031 5026 1
5031 5029 1
5040 5049 1
5040 5061 1
5040 5064 1
5041 5050 1
5041 5058 1
5041 5060 1
5042 5049 1
5042 5059 1
5048 5043 1
5048 5046 1
5048 5059 1
5049 5060 1
5050 5059 1
5058 5051 1
5058 5056 1
5066 5076 1
5066 5087 1
5066 5091 1
5067 5077 1
5067 5084 1
5067 5086 1
5068 5076 1
5068 5085 1
5075 5069 1
5075 5073 1
5075 5085 1
5076 5086 1
5077 5085 1
5084 5078 1
5084 5082 1
5093 5104 1
5093 5115 1
5093 5120 1
5094 5105 1
5094 5112 1
5094 5114 1
5095 5104 1
5095 5113 1
5103 5096 1
5103 5101 1
5103 5113 1
5104 5114 1
5105 5113 1
5112 5106 1
5112 5110 1
5122 5133 1
5122 5144 1
5122 5148 1
5123 5134 1
5123 5141 1
5123 5143 1
5124 5133 1
5124 5142 1
5132 5125 1
5132 5130 1
5132 5142 1
5133 5143 1
5134 5142 1
5141 5135 1
5141 5139 1
5150 5159 1
5150 5170 1
5150 5174 1
5151 5160 1
5151 5167 1
5151 5169 1
5152 5159 1
5152 5168 1
5158 5153 1
5158 5156 1
5158 5168 1
5159 5169 1
5160 5168 1
5167 5161 1
5167 5165 1
5176 5185 1
5176 5196 1
5176 5200 1
5177 5186 1
5177 5193 1
5177 5195 1
5178 5185 1
5178 5194 1
5184 5179 1
5184 5182 1
5184 5194 1
5185 5195 1
5186 5194 1
5193 5187 1
5193 5191 1
5202 5212 1
5202 5224 1
5202 5228 1
5203 5213 1
5203 5221 1
5203 5223 1
5204 5212 1
5204 5222 1
5211 5205 1
5211 5209 1
5211 5222 1
5212 5223 1
5213 5222 1
5221 5214 1
5221 5219 1
5230 5239 1
5230 5250 1
5230 5253 1
5231 5240 1
5231 5247 1
5231 5249 1
5232 5239 1
5232 5248 1
5238 5233 1
5238 5236 1
5238 5248 1
5239 5249 1
5240 5248 1
5247 5241 1
5247 5245 1
5255 5266 1
5255 5277 1
5255 5281 1
5256 5267 1
5256 5274 1
5256 5276 1
5257 5266 1
5257 5275 1
5265 5258 1
5265 5263 1
5265 5275 1
5266 5276 1
5267 5275 1
5274 5268 1
5274 5272 1
5283 5292 1
5283 5303 1
5283 5306 1
5284 5293 1
5284 5300 1
5284 5302 1
5285 5292 1
5285 5301 1
5291 5286 1
5291 5289 1
5291 5301 1
5292 5302 1
5293 5301 1
5300 5294 1
5300 5298 1
5308 5317 1
5308 5328 1
5308 5333 1
5309 5318 1
5309 5325 1
5309 5327 1
5310 5317 1
5310 5326 1
5316 5311 1
5316 5314 1
5316 5326 1
5317 5327 1
5318 5326 1
5325 5319 1
5325 5323 1
5335 5344 1
5335 5354 1
5335 5357 1
5336 5345 1
5336 5351 1
5336 5353 1
5337 5344 1
5337 5352 1
5343 5338 1
5343 5341 1
5343 5352 1
5344 5353 1
5345 5352 1
5351 5346 1
5351 5349 1
5359 5369 1
5359 5379 1
5359 5384 1
5360 5370 1
5360 5376 1
5360 5378 1
5361 5369 1
5361 5377 1
5368 5362 1
5368 5366 1
5368 5377 1
5369 5378 1
5370 5377 1
5376 5371 1
5376 5374 1
5386 5397 1
5386 5407 1
5386 5410 1
5387 5398 1
5387 5404 1
5387 5406 1
5388 5397 1
5388 5405 1
5396 5389 1
5396 5394 1
5396 5405 1
5397 5406 1
5398 5405 1
5404 5399 1
5404 5402 1
5412 5421 1
5412 5431 1
5412 5435 1
5413 5422 1
5413 5428 1
5413 5430 1
5414 5421 1
5414 5429 1
5420 5415 1
5420 5418 1
5420 5429 1
5421 5430 1
5422 5429 1
5428 5423 1
5428 5426 1
5437 5447 1
5437 5458 1
5437 5462 1
5438 5448 1
5438 5455 1
5438 5457 1
5439 5447 1
5439 5456 1
5446 5440 1
5446 5444 1
5446 5456 1
5447 5457 1
5448 5456 1
5455 5449 1
5455 5453 1
5464 5473 1
5464 5484 1
5464 5488 1
5465 5474 1
5465 5481 1
5465 5483 1
5466 5473 1
5466 5482 1
5472 5467 1
5472 5470 1
5472 5482 1
5473 5483 1
5474 5482 1
5481 5475 1
5481 5479 1
5490 5499 1
5490 5511 1
5490 5514 1
5491 5500 1
5491 5508 1
5491 5510 1
5492 5499 1
5492 5509 1
5498 5493 1
5498 5496 1
5498 5509 1
5499 5510 1
5500 5509 1
5508 5501 1
5508 5506 1
5516 5525 1
5516 5536 1
5516 5540 1
5517 5526 1
5517 5533 1
5517 5535 1
5518 5525 1
5518 5534 1
5524 5519 1
5524 5522 1
5524 5534 1
5525 5535 1
5526 5534 1
5533 5527 1
5533 5531 1
5542 5551 1
5542 5563 1
5542 5567 1
5543 5552 1
5543 5560 1
5543 5562 1
5544 5551 1
5544 5561 1
5550 5545 1
5550 5548 1
5550 5561 1
5551 5562 1
5552 5561 1
5560 5553 1
5560 5558 1
5569 5579 1
5569 5589 1
5569 5592 1
5570 5580 1
5570 5586 1
5570 5588 1
5571 5579 1
5571 5587 1
5578 5572 1
5578 5576 1
5578 5587 1
5579 5588 1
5580 5587 1
5586 5581 1
5586 5584 1
5594 5603 1
5594 5613 1
5594 5616 1
5595 5604 1
5595 5610 1
5595 5612 1
5596 5603 1
5596 5611 1
5602 5597 1
5602 5600 1
5602 5611 1
5603 5612 1
5604 5611 1
5610 5605 1
5610 5608 1
5618 5628 1
5618 5639 1
5618 5642 1
5619 5629 1
5619 5636 1
5619 5638 1
5620 5628 1
5620 5637 1
5627 5621 1
5627 5625 1
5627 5637 1
5628 5638 1
5629 5637 1
5636 5630 1
5636 5634 1
5644 5654 1
5644 5666 1
5644 5669 1
5645 5655 1
5645 5663 1
5645 5665 1
5646 5654 1
5646 5664 1
5653 5647 1
5653 5651 1
5653 5664 1
5654 5665 1
5655 5664 1
5663 5656 1
5663 5661 1
5671 5681 1
5671 5692 1
5671 5696 1
5672 5682 1
5672 5689 1
5672 5691 1
5673 5681 1
5673 5690 1
5680 5674 1
5680 5678 1
5680 5690 1
5681 5691 1
5682 5690 1
5689 5683 1
5689 5687 1
5698 5708 1
5698 5718 1
5698 5721 1
5699 5709 1
5699 5715 1
5699 5717 1
5700 5708 1
5700 5716 1
5707 5701 1
5707 5705 1
5707 5716 1
5708 5717 1
5709 5716 1
5715 5710 1
5715 5713 1
5723 5734 1
5723 5745 1
5723 5749 1
5724 5735 1
5724 5742 1
5724 5744 1
5725 5734 1
5725 5743 1
5733 5726 1
5733 5731 1
5733 5743 1
5734 5744 1
5735 5743 1
5742 5736 1
5742 5740 1
5751 5761 1
5751 5772 1
5751 5776 1
5752 5762 1
5752 5769 1
5752 5771 1
5753 5761 1
5753 5770 1
5760 5754 1
5760 5758 1
5760 5770 1
5761 5771 1
5762 5770 1
5769 5763 1
5769 5767 1
5778 5788 1
5778 5799 1
5778 5802 1
5779 5789 1
5779 5796 1
5779 5798 1
5780 5788 1
5780 5797 1
5787 5781 1
5787 5785 1
5787 5797 1
5788 5798 1
5789 5797 1
5796 5790 1
5796 5794 1
5804 5814 1
5804 5825 1
5804 5828 1
5805 5815 1
5805 5822 1
5805 5824 1
5806 5814 1
5806 5823 1
5813 5807 1
5813 5811 1
5813 5823 1
5814 5824 1
5815 5823 1
5822 5816 1
5822 5820 1
5830 5839 1
5830 5849 1
5830 5853 1
5831 5840 1
5831 5846 1
5831 5848 1
5832 5839 1
5832 5847 1
5838 5833 1
5838 5836 1
5838 5847 1
5839 5848 1
5840 5847 1
5846 5841 1
5846 5844 1
5855 5864 1
5855 5875 1
5855 5878 1
5856 5865 1
5856 5872 1
5856 5874 1
5857 5864 1
5857 5873 1
5863 5858 1
5863 5861 1
5863 5873 1
5864 5874 1
5865 5873 1
5872 5866 1
5872 5870 1
5880 5890 1
5880 5900 1
5880 5903 1
5881 5891 1
5881 5897 1
5881 5899 1
5882 5890 1
5882 5898 1
5889 5883 1
5889 5887 1
5889 5898 1
5890 5899 1
5891 5898 1
5897 5892 1
5897 5895 1
5905 5915 1
5905 5926 1
5905 5930 1
5906 5916 1
5906 5923 1
5906 5925 1
5907 5915 1
5907 5924 1
5914 5908 1
5914 5912 1
5914 5924 1
5915 5925 1
5916 5924 1
5923 5917 1
5923 5921 1
5932 5941 1
5932 5952 1
5932 5955 1
5933 5942 1
5933 5949 1
5933 5951 1
5934 5941 1
5934 5950 1
5940 5935 1
5940 5938 1
5940 5950 1
5941 5951 1
5942 5950 1
5949 5943 1
5949 5947 1
5957 5967 1
5957 5977 1
5957 5981 1
5958 5968 1
5958 5974 1
5958 5976 1
5959 5967 1
5959 5975 1
5966 5960 1
5966 5964 1
5966 5975 1
5967 5976 1
5968 5975 1
5974 5969 1
5974 5972 1
5983 5993 1
5983 6004 1
5983 6007 1
5984 5994 1
5984 6001 1
5984 6003 1
5985 5993 1
5985 6002 1
5992 5986 1
5992 5990 1
5992 6002 1
5993 6003 1
5994 6002 1
6001 5995 1
6001 5999 1
6009 6020 1
6009 6030 1
6009 6033 1
6010 6021 1
6010 6027 1
6010 6029 1
6011 6020 1
6011 6028 1
6019 6012 1
6019 6017 1
6019 6028 1
6020 6029 1
6021 6028 1
6027 6022 1
6027 6025 1
6035 6044 1
6035 6055 1
6035 6060 1
6036 6045 1
6036 6052 1
6036 6054 1
6037 6044 1
6037 6053 1
6043 6038 1
6043 6041 1
6043 6053 1
6044 6054 1
6045 6053 1
6052 6046 1
6052 6050 1
6062 6071 1
6062 6082 1
6062 6086 1
6063 6072 1
6063 6079 1
6063 6081 1
6064 6071 1
6064 6080 1
6070 6065 1
6070 6068 1
6070 6080 1
6071 6081 1
6072 6080 1
6079 6073 1
6079 6077 1
6088 6098 1
6088 6109 1
6088 6112 1
6089 6099 1
6089 6106 1
6089 6108 1
6090 6098 1
6090 6107 1
6097 6091 1
6097 6095 1
6097 6107 1
6098 6108 1
6099 6107 1
6106 6100 1
6106 6104 1
6114 6124 1
6114 6135 1
6114 6138 1
6115 6125 1
6115 6132 1
6115 6134 1
6116 6124 1
6116 6133 1
6123 6117 1
6123 6121 1
6123 6133 1
6124 6134 1
6125 6133 1
6132 6126 1
6132 6130 1
6140 6150 1
6140 6161 1
6140 6165 1
6141 6151 1
6141 6158 1
6141 6160 1
6142 6150 1
6142 6159 1
6149 6143 1
6149 6147 1
6149 6159 1
6150 6160 1
6151 6159 1
6158 6152 1
6158 6156 1
6167 6178 1
6167 6189 1
6167 6193 1
6168 6179 1
6168 6186 1
6168 6188 1
6169 6178 1
6169 6187 1
6177 6170 1
6177 6175 1
6177 6187 1
6178 6188 1
6179 6187 1
6186 6180 1
6186 6184 1
6195 6204 1
6195 6215 1
6195 6219 1
6196 6205 1
6196 6212 1
6196 6214 1
6197 6204 1
6197 6213 1
6203 6198 1
6203 6201 1
6203 6213 1
6204 6214 1
6205 6213 1
6212 6206 1
6212 6210 1
6221 6232 1
6221 6243 1
6221 6248 1
6222 6233 1
6222 6240 1
6222 6242 1
6223 6232 1
6223 6241 1
6231 6224 1
6231 6229 1
6231 6241 1
6232 6242 1
6233 6241 1
6240 6234 1
6240 6238 1
6250 6259 1
6250 6271 1
6250 6275 1
6251 6260 1
6251 6268 1
6251 6270 1
6252 6259 1
6252 6269 1
6258 6253 1
6258 6256 1
6258 6269 1
6259 6270 1
6260 6269 1
6268 6261 1
6268 6266 1
6277 6286 1
6277 6297 1
6277 6300 1
6278 6287 1
6278 6294 1
6278 6296 1
6279 6286 1
6279 6295 1
6285 6280 1
6285 6283 1
6285 6295 1
6286 6296 1
6287 6295 1
6294 6288 1
6294 6292 1
6302 6313 1
6302 6324 1
6302 6329 1
6303 6314 1
6303 6321 1
6303 6323 1
6304 6313 1
6304 6322 1
6312 6305 1
6312 6310 1
6312 6322 1
6313 6323 1
6314 6322 1
6321 6315 1
6321 6319 1
6331 6342 1
6331 6353 1
6331 6357 1
6332 6343 1
6332 6350 1
6332 6352 1
6333 6342 1
6333 6351 1
6341 6334 1
6341 6339 1
6341 6351 1
6342 6352 1
6343 6351 1
6350 6344 1
6350 6348 1
6359 6368 1
6359 6378 1
6359 6382 1
6360 6369 1
6360 6375 1
6360 6377 1
6361 6368 1
6361 6376 1
6367 6362 1
6367 6365 1
6367 6376 1
6368 6377 1
6369 6376 1
6375 6370 1
6375 6373 1
6384 6395 1
6384 6406 1
6384 6409 1
6385 6396 1
6385 6403 1
6385 6405 1
6386 6395 1
6386 6404 1
6394 6387 1
6394 6392 1
6394 6404 1
6395 6405 1
6396 6404 1
6403 6397 1
6403 6401 1
6411 6420 1
6411 6431 1
6411 6435 1
6412 6421 1
6412 6428 1
6412 6430 1
6413 6420 1
6413 6429 1
6419 6414 1
6419 6417 1
6419 6429 1
6420 6430 1
6421 6429 1
6428 6422 1
6428 6426 1
6437 6446 1
6437 6456 1
6437 6460 1
6438 6447 1
6438 6453 1
6438 6455 1
6439 6446 1
6439 6454 1
6445 6440 1
6445 6443 1
6445 6454 1
6446 6455 1
6447 6454 1
6453 6448 1
6453 6451 1
6462 6473 1
6462 6485 1
6462 6489 1
6463 6474 1
6463 6482 1
6463 6484 1
6464 6473 1
6464 6483 1
6472 6465 1
6472 6470 1
6472 6483 1
6473 6484 1
6474 6483 1
6482 6475 1
6482 6480 1
6491 6500 1
6491 6511 1
6491 6515 1
6492 6501 1
6492 6508 1
6492 6510 1
6493 6500 1
6493 6509 1
6499 6494 1
6499 6497 1
6499 6509 1
6500 6510 1
6501 6509 1
6508 6502 1
6508 6506 1
6517 6526 1
6517 6536 1
6517 6540 1
6518 6527 1
6518 6533 1
6518 6535 1
6519 6526 1
6519 6534 1
6525 6520 1
6525 6523 1
6525 6534 1
6526 6535 1
6527 6534 1
6533 6528 1
6533 6531 1
6542 6551 1
6542 6561 1
6542 6565 1
6543 6552 1
6543 6558 1
6543 6560 1
6544 6551 1
6544 6559 1
6550 6545 1
6550 6548 1
6550 6559 1
6551 6560 1
6552 6559 1
6558 6553 1
6558 6556 1
6567 6577 1
6567 6587 1
6567 6590 1
6568 6578 1
6568 6584 1
6568 6586 1
6569 6577 1
6569 6585 1
6576 6570 1
6576 6574 1
6576 6585 1
6577 6586 1
6578 6585 1
6584 6579 1
6584 6582 1
6592 6602 1
6592 6612 1
6592 6615 1
6593 6603 1
6593 6609 1
6593 6611 1
6594 6602 1
6594 6610 1
6601 6595 1
6601 6599 1
6601 6610 1
6602 6611 1
6603 6610 1
6609 6604 1
6609 6607 1
6617 6626 1
6617 6637 1
6617 6640 1
6618 6627 1
6618 6634 1
6618 6636 1
6619 6626 1
6619 6635 1
6625 6620 1
6625 6623 1
6625 6635 1
6626 6636 1
6627 6635 1
6634 6628 1
6634 6632 1
6642 6651 1
6642 6661 1
6642 6664 1
6643 6652 1
6643 6658 1
6643 6660 1
6644 6651 1
6644 6659 1
6650 6645 1
6650 6648 1
6650 6659 1
6651 6660 1
6652 6659 1
6658 6653 1
6658 6656 1
6666 6675 1
6666 6685 1
6666 6689 1
6667 6676 1
6667 6682 1
6667 6684 1
6668 6675 1
6668 6683 1
6674 6669 1
6674 6672 1
6674 6683 1
6675 6684 1
6676 6683 1
6682 6677 1
6682 6680 1
6691 6701 1
6691 6712 1
6691 6715 1
6692 6702 1
6692 6709 1
6692 6711 1
6693 6701 1
6693 6710 1
6700 6694 1
6700 6698 1
6700 6710 1
6701 6711 1
6702 6710 1
6709 6703 1
6709 6707 1
6717 6727 1
6717 6738 1
6717 6741 1
6718 6728 1
6718 6735 1
6718 6737 1
6719 6727 1
6719 6736 1
6726 6720 1
6726 6724 1
6726 6736 1
6727 6737 1
6728 6736 1
6735 6729 1
6735 6733 1
6743 6752 1
6743 6763 1
6743 6767 1
6744 6753 1
6744 6760 1
6744 6762 1
6745 6752 1
6745 6761 1
6751 6746 1
6751 6749 1
6751 6761 1
6752 6762 1
6753 6761 1
6760 6754 1
6760 6758 1
6769 6779 1
6769 6789 1
6769 6792 1
6770 6780 1
6770 6786 1
6770 6788 1
6771 6779 1
6771 6787 1
6778 6772 1
6778 6776 1
6778 6787 1
6779 6788 1
6780 6787 1
6786 6781 1
6786 6784 1
6794 6804 1
6794 6815 1
6794 6818 1
6795 6805 1
6795 6812 1
6795 6814 1
6796 6804 1
6796 6813 1
6803 6797 1
6803 6801 1
6803 6813 1
6804 6814 1
6805 6813 1
6812 6806 1
6812 6810 1
6820 6830 1
6820 6842 1
6820 6845 1
6821 6831 1
6821 6839 1
6821 6841 1
6822 6830 1
6822 6840 1
6829 6823 1
6829 6827 1
6829 6840 1
6830 6841 1
6831 6840 1
6839 6832 1
6839 6837 1
6847 6856 1
6847 6866 1
6847 6869 1
6848 6857 1
6848 6863 1
6848 6865 1
6849 6856 1
6849 6864 1
6855 6850 1
6855 6853 1
6855 6864 1
6856 6865 1
6857 6864 1
6863 6858 1
6863 6861 1
6871 6881 1
6871 6892 1
6871 6896 1
6872 6882 1
6872 6889 1
6872 6891 1
6873 6881 1
6873 6890 1
6880 6874 1
6880 6878 1
6880 6890 1
6881 6891 1
6882 6890 1
6889 6883 1
6889 6887 1
6898 6907 1
6898 6917 1
6898 6920 1
6899 6908 1
6899 6914 1
6899 6916 1
6900 6907 1
6900 6915 1
6906 6901 1
6906 6904 1
6906 6915 1
6907 6916 1
6908 6915 1
6914 6909 1
6914 6912 1
6922 6932 1
6922 6942 1
6922 6946 1
6923 6933 1
6923 6939 1
6923 6941 1
6924 6932 1
6924 6940 1
6931 6925 1
6931 6929 1
6931 6940 1
6932 6941 1
6933 6940 1
6939 6934 1
6939 6937 1
6948 6958 1
6948 6968 1
6948 6971 1
6949 6959 1
6949 6965 1
6949 6967 1
6950 6958 1
6950 6966 1
6957 6951 1
6957 6955 1
6957 6966 1
6958 6967 1
6959 6966 1
6965 6960 1
6965 6963 1
6973 6983 1
6973 6993 1
6973 6996 1
6974 6984 1
6974 6990 1
6974 6992 1
6975 6983 1
6975 6991 1
6982 6976 1
6982 6980 1
6982 6991 1
6983 6992 1
6984 6991 1
6990 6985 1
6990 6988 1
6998 7008 1
6998 7020 1
6998 7024 1
6999 7009 1
6999 7017 1
6999 7019 1
7000 7008 1
7000 7018 1
7007 7001 1
7007 7005 1
7007 7018 1
7008 7019 1
7009 7018 1
7017 7010 1
7017 7015 1
7026 7036 1
7026 7047 1
7026 7052 1
7027 7037 1
7027 7044 1
7027 7046 1
7028 7036 1
7028 7045 1
7035 7029 1
7035 7033 1
7035 7045 1
7036 7046 1
7037 7045 1
7044 7038 1
7044 7042 1
7054 7063 1
7054 7073 1
7054 7076 1
7055 7064 1
7055 7070 1
7055 7072 1
7056 7063 1
7056 7071 1
7062 7057 1
7062 7060 1
7062 7071 1
7063 7072 1
7064 7071 1
7070 7065 1
7070 7068 1
7078 7087 1
7078 7099 1
7078 7103 1
7079 7088 1
7079 7096 1
7079 7098 1
7080 7087 1
7080 7097 1
7086 7081 1
7086 7084 1
7086 7097 1
7087 7098 1
7088 7097 1
7096 7089 1
7096 7094 1
7105 7115 1
7105 7125 1
7105 7129 1
7106 7116 1
7106 7122 1
7106 7124 1
7107 7115 1
7107 7123 1
7114 7108 1
7114 7112 1
7114 7123 1
7115 7124 1
7116 7123 1
7122 7117 1
7122 7120 1
7131 7140 1
7131 7150 1
7131 7153 1
7132 7141 1
7132 7147 1
7132 7149 1
7133 7140 1
7133 7148 1
7139 7134 1
7139 7137 1
7139 7148 1
7140 7149 1
7141 7148 1
7147 7142 1
7147 7145 1
7155 7165 1
7155 7176 1
7155 7180 1
7156 7166 1
7156 7173 1
7156 7175 1
7157 7165 1
7157 7174 1
7164 7158 1
7164 7162 1
7164 7174 1
7165 7175 1
7166 7174 1
7173 7167 1
7173 7171 1
7182 7193 1
7182 7203 1
7182 7206 1
7183 7194 1
7183 7200 1
7183 7202 1
7184 7193 1
7184 7201 1
7192 7185 1
7192 7190 1
7192 7201 1
7193 7202 1
7194 7201 1
7200 7195 1
7200 7198 1
7208 7217 1
7208 7228 1
7208 7232 1
7209 7218 1
7209 7225 1
7209 7227 1
7210 7217 1
7210 7226 1
7216 7211 1
7216 7214 1
7216 7226 1
7217 7227 1
7218 7226 1
7225 7219 1
7225 7223 1
7234 7243 1
7234 7253 1
7234 7258 1
7235 7244 1
7235 7250 1
7235 7252 1
7236 7243 1
7236 7251 1
7242 7237 1
7242 7240 1
7242 7251 1
7243 7252 1
7244 7251 1
7250 7245 1
7250 7248 1
7260 7269 1
7260 7279 1
7260 7283 1
7261 7270 1
7261 7276 1
7261 7278 1
7262 7269 1
7262 7277 1
7268 7263 1
7268 7266 1
7268 7277 1
7269 7278 1
7270 7277 1
7276 7271 1
7276 7274 1
7285 7294 1
7285 7306 1
7285 7310 1
7286 7295 1
7286 7303 1
7286 7305 1
7287 7294 1
7287 7304 1
7293 7288 1
7293 7291 1
7293 7304 1
7294 7305 1
7295 7304 1
7303 7296 1
7303 7301 1
7312 7322 1
7312 7333 1
7312 7338 1
7313 7323 1
7313 7330 1
7313 7332 1
7314 7322 1
7314 7331 1
7321 7315 1
7321 7319 1
7321 7331 1
7322 7332 1
7323 7331 1
7330 7324 1
7330 7328 1
7340 7349 1
7340 7359 1
7340 7362 1
7341 7350 1
7341 7356 1
7341 7358 1
7342 7349 1
7342 7357 1
7348 7343 1
7348 7346 1
7348 7357 1
7349 7358 1
7350 7357 1
7356 7351 1
7356 7354 1
7364 7374 1
7364 7386 1
7364 7390 1
7365 7375 1
7365 7383 1
7365 7385 1
7366 7374 1
7366 7384 1
7373 7367 1
7373 7371 1
7373 7384 1
7374 7385 1
7375 7384 1
7383 7376 1
7383 7381 1
7392 7401 1
7392 7411 1
7392 7414 1
7393 7402 1
7393 7408 1
7393 7410 1
7394 7401 1
7394 7409 1
7400 7395 1
7400 7398 1
7400 7409 1
7401 7410 1
7402 7409 1
7408 7403 1
7408 7406 1
7416 7425 1
7416 7435 1
7416 7438 1
7417 7426 1
7417 7432 1
7417 7434 1
7418 7425 1
7418 7433 1
7424 7419 1
7424 7422 1
7424 7433 1
7425 7434 1
7426 7433 1
7432 7427 1
7432 7430 1
7440 7449 1
7440 7460 1
7440 7464 1
7441 7450 1
7441 7457 1
7441 7459 1
7442 7449 1
7442 7458 1
7448 7443 1
7448 7446 1
7448 7458 1
7449 7459 1
7450 7458 1
7457 7451 1
7457 7455 1
7466 7475 1
7466 7485 1
7466 7490 1
7467 7476 1
7467 7482 1
7467 7484 1
7468 7475 1
7468 7483 1
7474 7469 1
7474 7472 1
7474 7483 1
7475 7484 1
7476 7483 1
7482 7477 1
7482 7480 1
7492 7502 1
7492 7512 1
7492 7516 1
7493 7503 1
7493 7509 1
7493 7511 1
7494 7502 1
7494 7510 1
7501 7495 1
7501 7499 1
7501 7510 1
7502 7511 1
7503 7510 1
7509 7504 1
7509 7507 1
7518 7528 1
7518 7538 1
7518 7542 1
7519 7529 1
7519 7535 1
7519 7537 1
7520 7528 1
7520 7536 1
7527 7521 1
7527 7525 1
7527 7536 1
7528 7537 1
7529 7536 1
7535 7530 1
7535 7533 1
7544 7553 1
7544 7564 1
7544 7568 1
7545 7554 1
7545 7561 1
7545 7563 1
7546 7553 1
7546 7562 1
7552 7547 1
7552 7550 1
7552 7562 1
7553 7563 1
7554 7562 1
7561 7555 1
7561 7559 1
7570 7580 1
7570 7591 1
7570 7596 1
7571 7581 1
7571 7588 1
7571 7590 1
7572 7580 1
7572 7589 1
7579 7573 1
7579 7577 1
7579 7589 1
7580 7590 1
7581 7589 1
7588 7582 1
7588 7586 1
7598 7607 1
7598 7617 1
7598 7620 1
7599 7608 1
7599 7614 1
7599 7616 1
7600 7607 1
7600 7615 1
7606 7601 1
7606 7604 1
7606 7615 1
7607 7616 1
7608 7615 1
7614 7609 1
7614 7612 1
7622 7633 1
7622 7644 1
7622 7648 1
7623 7634 1
7623 7641 1
7623 7643 1
7624 7633 1
7624 7642 1
7632 7625 1
7632 7630 1
7632 7642 1
7633 7643 1
7634 7642 1
7641 7635 1
7641 7639 1
7650 7659 1
7650 7669 1
7650 7673 1
7651 7660 1
7651 7666 1
7651 7668 1
7652 7659 1
7652 7667 1
7658 7653 1
7658 7656 1
7658 7667 1
7659 7668 1
7660 7667 1
7666 7661 1
7666 7664 1
7675 7684 1
7675 7694 1
7675 7698 1
7676 7685 1
7676 7691 1
7676 7693 1
7677 7684 1
7677 7692 1
7683 7678 1
7683 7681 1
7683 7692 1
7684 7693 1
7685 7692 1
7691 7686 1
7691 7689 1
7700 7710 1
7700 7721 1
7700 7724 1
7701 7711 1
7701 7718 1
7701 7720 1
7702 7710 1
7702 7719 1
7709 7703 1
7709 7707 1
7709 7719 1
7710 7720 1
7711 7719 1
7718 7712 1
7718 7716 1
7726 7736 1
7726 7747 1
7726 7750 1
7727 7737 1
7727 7744 1
7727 7746 1
7728 7736 1
7728 7745 1
7735 7729 1
7735 7733 1
7735 7745 1
7736 7746 1
7737 7745 1
7744 7738 1
7744 7742 1
7752 7761 1
7752 7772 1
7752 7775 1
7753 7762 1
7753 7769 1
7753 7771 1
7754 7761 1
7754 7770 1
7760 7755 1
7760 7758 1
7760 7770 1
7761 7771 1
7762 7770 1
7769 7763 1
7769 7767 1
7777 7788 1
7777 7799 1
7777 7802 1
7778 7789 1
7778 7796 1
7778 7798 1
7779 7788 1
7779 7797 1
7787 7780 1
7787 7785 1
7787 7797 1
7788 7798 1
7789 7797 1
7796 7790 1
7796 7794 1
7804 7813 1
7804 7824 1
7804 7827 1
7805 7814 1
7805 7821 1
7805 7823 1
7806 7813 1
7806 7822 1
7812 7807 1
7812 7810 1
7812 7822 1
7813 7823 1
7814 7822 1
7821 7815 1
7821 7819 1
7829 7838 1
7829 7848 1
7829 7852 1
7830 7839 1
7830 7845 1
7830 7847 1
7831 7838 1
7831 7846 1
7837 7832 1
7837 7835 1
7837 7846 1
7838 7847 1
7839 7846 1
7845 7840 1
7845 7843 1
7854 7864 1
7854 7874 1
7854 7877 1
7855 7865 1
7855 7871 1
7855 7873 1
7856 7864 1
7856 7872 1
7863 7857 1
7863 7861 1
7863 7872 1
7864 7873 1
7865 7872 1
7871 7866 1
7871 7869 1
7879 7888 1
7879 7898 1
7879 7902 1
7880 7889 1
7880 7895 1
7880 7897 1
7881 7888 1
7881 7896 1
7887 7882 1
7887 7885 1
7887 7896 1
7888 7897 1
7889 7896 1
7895 7890 1
7895 7893 1
7904 7913 1
7904 7924 1
7904 7928 1
7905 7914 1
7905 7921 1
7905 7923 1
7906 7913 1
7906 7922 1
7912 7907 1
7912 7910 1
7912 7922 1
7913 7923 1
7914 7922 1
7921 7915 1
7921 7919 1
7930 7939 1
7930 7951 1
7930 7954 1
7931 7940 1
7931 7948 1
7931 7950 1
7932 7939 1
7932 7949 1
7938 7933 1
7938 7936 1
7938 7949 1
7939 7950 1
7940 7949 1
7948 7941 1
7948 7946 1
7956 7966 1
7956 7978 1
7956 7982 1
7957 7967 1
7957 7975 1
7957 7977 1
7958 7966 1
7958 7976 1
7965 7959 1
7965 7963 1
7965 7976 1
7966 7977 1
7967 7976 1
7975 7968 1
7975 7973 1
7984 7995 1
7984 8006 1
7984 8009 1
7985 7996 1
7985 8003 1
7985 8005 1
7986 7995 1
7986 8004 1
7994 7987 1
7994 7992 1
7994 8004 1
7995 8005 1
7996 8004 1
8003 7997 1
8003 8001 1
8011 8021 1
8011 8032 1
8011 8036 1
8012 8022 1
8012 8029 1
8012 8031 1
8013 8021 1
8013 8030 1
8020 8014 1
8020 8018 1
8020 8030 1
8021 8031 1
8022 8030 1
8029 8023 1
8029 8027 1
8038 8048 1
8038 8058 1
8038 8061 1
8039 8049 1
8039 8055 1
8039 8057 1
8040 8048 1
8040 8056 1
8047 8041 1
8047 8045 1
8047 8056 1
8048 8057 1
8049 8056 1
8055 8050 1
8055 8053 1
8063 8072 1
8063 8083 1
8063 8086 1
8064 8073 1
8064 8080 1
8064 8082 1
8065 8072 1
8065 8081 1
8071 8066 1
8071 8069 1
8071 8081 1
8072 8082 1
8073 8081 1
8080 8074 1
8080 8078 1
8088 8097 1
8088 8108 1
8088 8112 1
8089 8098 1
8089 8105 1
8089 8107 1
8090 8097 1
8090 8106 1
8096 8091 1
8096 8094 1
8096 8106 1
8097 8107 1
8098 8106 1
8105 8099 1
8105 8103 1
8114 8124 1
8114 8136 1
8114 8139 1
8115 8125 1
8115 8133 1
8115 8135 1
8116 8124 1
8116 8134 1
8123 8117 1
8123 8121 1
8123 8134 1
8124 8135 1
8125 8134 1
8133 8126 1
8133 8131 1
8141 8150 1
8141 8161 1
8141 8164 1
8142 8151 1
8142 8158 1
8142 8160 1
8143 8150 1
8143 8159 1
8149 8144 1
8149 8147 1
8149 8159 1
8150 8160 1
8151 8159 1
8158 8152 1
8158 8156 1
8166 8175 1
8166 8185 1
8166 8188 1
8167 8176 1
8167 8182 1
8167 8184 1
8168 8175 1
8168 8183 1
8174 8169 1
8174 8172 1
8174 8183 1
8175 8184 1
8176 8183 1
8182 8177 1
8182 8180 1
8190 8199 1
8190 8210 1
8190 8213 1
8191 8200 1
8191 8207 1
8191 8209 1
8192 8199 1
8192 8208 1
8198 8193 1
8198 8196 1
8198 8208 1
8199 8209 1
8200 8208 1
8207 8201 1
8207 8205 1
8215 8225 1
8215 8236 1
8215 8240 1
8216 8226 1
8216 8233 1
8216 8235 1
8217 8225 1
8217 8234 1
8224 8218 1
8224 8222 1
8224 8234 1
8225 8235 1
8226 8234 1
8233 8227 1
8233 8231 1
8242 8252 1
8242 8262 1
8242 8265 1
8243 8253 1
8243 8259 1
8243 8261 1
8244 8252 1
8244 8260 1
8251 8245 1
8251 8249 1
8251 8260 1
8252 8261 1
8253 8260 1
8259 8254 1
8259 8257 1
8267 8277 1
8267 8288 1
8267 8291 1
8268 8278 1
8268 8285 1
8268 8287 1
8269 8277 1
8269 8286 1
8276 8270 1
8276 8274 1
8276 8286 1
8277 8287 1
8278 8286 1
8285 8279 1
8285 8283 1
8293 8302 1
8293 8314 1
8293 8317 1
8294 8303 1
8294 8311 1
8294 8313 1
8295 8302 1
8295 8312 1
8301 8296 1
8301 8299 1
8301 8312 1
8302 8313 1
8303 8312 1
8311 8304 1
8311 8309 1
8319 8328 1
8319 8338 1
8319 8341 1
8320 8329 1
8320 8335 1
8320 8337 1
8321 8328 1
8321 8336 1
8327 8322 1
8327 8325 1
8327 8336 1
8328 8337 1
8329 8336 1
8335 8330 1
8335 8333 1
8343 8352 1
8343 8362 1
8343 8365 1
8344 8353 1
8344 8359 1
8344 8361 1
8345 8352 1
8345 8360 1
8351 8346 1
8351 8349 1
8351 8360 1
8352 8361 1
8353 8360 1
8359 8354 1
8359 8357 1
8367 8377 1
8367 8388 1
8367 8391 1
8368 8378 1
8368 8385 1
8368 8387 1
8369 8377 1
8369 8386 1
8376 8370 1
8376 8374 1
8376 8386 1
8377 8387 1
8378 8386 1
8385 8379 1
8385 8383 1
8393 8402 1
8393 8413 1
8393 8417 1
8394 8403 1
8394 8410 1
8394 8412 1
8395 8402 1
8395 8411 1
8401 8396 1
8401 8399 1
8401 8411 1
8402 8412 1
8403 8411 1
8410 8404 1
8410 8408 1
8419 8429 1
8419 8439 1
8419 8442 1
8420 8430 1
8420 8436 1
8420 8438 1
8421 8429 1
8421 8437 1
8428 8422 1
8428 8426 1
8428 8437 1
8429 8438 1
8430 8437 1
8436 8431 1
8436 8434 1
8444 8455 1
8444 8465 1
8444 8468 1
8445 8456 1
8445 8462 1
8445 8464 1
8446 8455 1
8446 8463 1
8454 8447 1
8454 8452 1
8454 8463 1
8455 8464 1
8456 8463 1
8462 8457 1
8462 8460 1
8470 8479 1
8470 8490 1
8470 8494 1
8471 8480 1
8471 8487 1
8471 8489 1
8472 8479 1
8472 8488 1
8478 8473 1
8478 8476 1
8478 8488 1
8479 8489 1
8480 8488 1
8487 8481 1
8487 8485 1
8496 8505 1
8496 8515 1
8496 8518 1
8497 8506 1
8497 8512 1
8497 8514 1
8498 8505 1
8498 8513 1
8504 8499 1
8504 8502 1
8504 8513 1
8505 8514 1
8506 8513 1
8512 8507 1
8512 8510 1
8520 8529 1
8520 8540 1
8520 8544 1
8521 8530 1
8521 8537 1
8521 8539 1
8522 8529 1
8522 8538 1
8528 8523 1
8528 8526 1
8528 8538 1
8529 8539 1
8530 8538 1
8537 8531 1
8537 8535 1
8546 8555 1
8546 8566 1
8546 8569 1
8547 8556 1
8547 8563 1
8547 8565 1
8548 8555 1
8548 8564 1
8554 8549 1
8554 8552 1
8554 8564 1
8555 8565 1
8556 8564 1
8563 8557 1
8563 8561 1
8571 8581 1
8571 8591 1
8571 8594 1
8572 8582 1
8572 8588 1
8572 8590 1
8573 8581 1
8573 8589 1
8580 8574 1
8580 8578 1
8580 8589 1
8581 8590 1
8582 8589 1
8588 8583 1
8588 8586 1
8596 8605 1
8596 8616 1
8596 8620 1
8597 8606 1
8597 8613 1
8597 8615 1
8598 8605 1
8598 8614 1
8604 8599 1
8604 8602 1
8604 8614 1
8605 8615 1
8606 8614 1
8613 8607 1
8613 8611 1
8622 8632 1
8622 8642 1
8622 8645 1
8623 8633 1
8623 8639 1
8623 8641 1
8624 8632 1
8624 8640 1
8631 8625 1
8631 8629 1
8631 8640 1
8632 8641 1
8633 8640 1
8639 8634 1
8639 8637 1
8647 8656 1
8647 8666 1
8647 8669 1
8648 8657 1
8648 8663 1
8648 8665 1
8649 8656 1
8649 8664 1
8655 8650 1
8655 8653 1
8655 8664 1
8656 8665 1
8657 8664 1
8663 8658 1
8663 8661 1
8671 8680 1
8671 8691 1
8671 8694 1
8672 8681 1
8672 8688 1
8672 8690 1
8673 8680 1
8673 8689 1
8679 8674 1
8679 8677 1
8679 8689 1
8680 8690 1
8681 8689 1
8688 8682 1
8688 8686 1
8696 8705 1
8696 8717 1
8696 8720 1
8697 8706 1
8697 8714 1
8697 8716 1
8698 8705 1
8698 8715 1
8704 8699 1
8704 8702 1
8704 8715 1
8705 8716 1
8706 8715 1
8714 8707 1
8714 8712 1
8722 8731 1
8722 8741 1
8722 8745 1
8723 8732 1
8723 8738 1
8723 8740 1
8724 8731 1
8724 8739 1
8730 8725 1
8730 8728 1
8730 8739 1
8731 8740 1
8732 8739 1
8738 8733 1
8738 8736 1
8747 8757 1
8747 8768 1
8747 8772 1
8748 8758 1
8748 8765 1
8748 8767 1
8749 8757 1
8749 8766 1
8756 8750 1
8756 8754 1
8756 8766 1
8757 8767 1
8758 8766 1
8765 8759 1
8765 8763 1
8774 8783 1
8774 8794 1
8774 8797 1
8775 8784 1
8775 8791 1
8775 8793 1
8776 8783 1
8776 8792 1
8782 8777 1
8782 8780 1
8782 8792 1
8783 8793 1
8784 8792 1
8791 8785 1
8791 8789 1
8799 8809 1
8799 8819 1
8799 8823 1
8800 8810 1
8800 8816 1
8800 8818 1
8801 8809 1
8801 8817 1
8808 8802 1
8808 8806 1
8808 8817 1
8809 8818 1
8810 8817 1
8816 8811 1
8816 8814 1
8825 8834 1
8825 8844 1
8825 8848 1
8826 8835 1
8826 8841 1
8826 8843 1
8827 8834 1
8827 8842 1
8833 8828 1
8833 8831 1
8833 8842 1
8834 8843 1
8835 8842 1
8841 8836 1
8841 8839 1
8850 8859 1
8850 8870 1
8850 8873 1
8851 8860 1
8851 8867 1
8851 8869 1
8852 8859 1
8852 8868 1
8858 8853 1
8858 8856 1
8858 8868 1
8859 8869 1
8860 8868 1
8867 8861 1
8867 8865 1
8875 8886 1
8875 8896 1
8875 8899 1
8876 8887 1
8876 8893 1
8876 8895 1
8877 8886 1
8877 8894 1
8885 8878 1
8885 8883 1
8885 8894 1
8886 8895 1
8887 8894 1
8893 8888 1
8893 8891 1
8901 8910 1
8901 8921 1
8901 8924 1
8902 8911 1
8902 8918 1
8902 8920 1
8903 8910 1
8903 8919 1
8909 8904 1
8909 8907 1
8909 8919 1
8910 8920 1
8911 8919 1
8918 8912 1
8918 8916 1
8926 8937 1
8926 8948 1
8926 8951 1
8927 8938 1
8927 8945 1
8927 8947 1
8928 8937 1
8928 8946 1
8936 8929 1
8936 8934 1
8936 8946 1
8937 8947 1
8938 8946 1
8945 8939 1
8945 8943 1
8953 8963 1
8953 8974 1
8953 8977 1
8954 8964 1
8954 8971 1
8954 8973 1
8955 8963 1
8955 8972 1
8962 8956 1
8962 8960 1
8962 8972 1
8963 8973 1
8964 8972 1
8971 8965 1
8971 8969 1
8979 8988 1
8979 8998 1
8979 9001 1
8980 8989 1
8980 8995 1
8980 8997 1
8981 8988 1
8981 8996 1
8987 8982 1
8987 8985 1
8987 8996 1
8988 8997 1
8989 8996 1
8995 8990 1
8995 8993 1
9003 9014 1
9003 9024 1
9003 9027 1
9004 9015 1
9004 9021 1
9004 9023 1
9005 9014 1
9005 9022 1
9013 9006 1
9013 9011 1
9013 9022 1
9014 9023 1
9015 9022 1
9021 9016 1
9021 9019 1
9029 9038 1
9029 9049 1
9029 9052 1
9030 9039 1
9030 9046 1
9030 9048 1
9031 9038 1
9031 9047 1
9037 9032 1
9037 9035 1
9037 9047 1
9038 9048 1
9039 9047 1
9046 9040 1
9046 9044 1
9054 9063 1
9054 9073 1
9054 9076 1
9055 9064 1
9055 9070 1
9055 9072 1
9056 9063 1
9056 9071 1
9062 9057 1
9062 9060 1
9062 9071 1
9063 9072 1
9064 9071 1
9070 9065 1
9070 9068 1
9078 9087 1
9078 9097 1
9078 9101 1
9079 9088 1
9079 9094 1
9079 9096 1
9080 9087 1
9080 9095 1
9086 9081 1
9086 9084 1
9086 9095 1
9087 9096 1
9088 9095 1
9094 9089 1
9094 9092 1
9103 9112 1
9103 9122 1
9103 9126 1
9104 9113 1
9104 9119 1
9104 9121 1
9105 9112 1
9105 9120 1
9111 9106 1
9111 9109 1
9111 9120 1
9112 9121 1
9113 9120 1
9119 9114 1
9119 9117 1
9128 9137 1
9128 9149 1
9128 9154 1
9129 9138 1
9129 9146 1
9129 9148 1
9130 9137 1
9130 9147 1
9136 9131 1
9136 9134 1
9136 9147 1
9137 9148 1
9138 9147 1
9146 9139 1
9146 9144 1
9156 9166 1
9156 9176 1
9156 9179 1
9157 9167 1
9157 9173 1
9157 9175 1
9158 9166 1
9158 9174 1
9165 9159 1
9165 9163 1
9165 9174 1
9166 9175 1
9167 9174 1
9173 9168 1
9173 9171 1
9181 9190 1
9181 9200 1
9181 9203 1
9182 9191 1
9182 9197 1
9182 9199 1
9183 9190 1
9183 9198 1
9189 9184 1
9189 9187 1
9189 9198 1
9190 9199 1
9191 9198 1
9197 9192 1
9197 9195 1
9205 9215 1
9205 9225 1
9205 9228 1
9206 9216 1
9206 9222 1
9206 9224 1
9207 9215 1
9207 9223 1
9214 9208 1
9214 9212 1
9214 9223 1
9215 9224 1
9216 9223 1
9222 9217 1
9222 9220 1
9230 9239 1
9230 9250 1
9230 9253 1
9231 9240 1
9231 9247 1
9231 9249 1
9232 9239 1
9232 9248 1
9238 9233 1
9238 9236 1
9238 9248 1
9239 9249 1
9240 9248 1
9247 9241 1
9247 9245 1
9255 9264 1
9255 9274 1
9255 9277 1
9256 9265 1
9256 9271 1
9256 9273 1
9257 9264 1
9257 9272 1
9263 9258 1
9263 9261 1
9263 9272 1
9264 9273 1
9265 9272 1
9271 9266 1
9271 9269 1
9279 9288 1
9279 9298 1
9279 9303 1
9280 9289 1
9280 9295 1
9280 9297 1
9281 9288 1
9281 9296 1
9287 9282 1
9287 9285 1
9287 9296 1
9288 9297 1
9289 9296 1
9295 9290 1
9295 9293 1
9305 9314 1
9305 9325 1
9305 9329 1
9306 9315 1
9306 9322 1
9306 9324 1
9307 9314 1
9307 9323 1
9313 9308 1
9313 9311 1
9313 9323 1
9314 9324 1
9315 9323 1
9322 9316 1
9322 9320 1
9331 9340 1
9331 9350 1
9331 9354 1
9332 9341 1
9332 9347 1
9332 9349 1
9333 9340 1
9333 9348 1
9339 9334 1
9339 9337 1
9339 9348 1
9340 9349 1
9341 9348 1
9347 9342 1
9347 9345 1
9356 9365 1
9356 9375 1
9356 9380 1
9357 9366 1
9357 9372 1
9357 9374 1
9358 9365 1
9358 9373 1
9364 9359 1
9364 9362 1
9364 9373 1
9365 9374 1
9366 9373 1
9372 9367 1
9372 9370 1
9382 9392 1
9382 9402 1
9382 9405 1
9383 9393 1
9383 9399 1
9383 9401 1
9384 9392 1
9384 9400 1
9391 9385 1
9391 9389 1
9391 9400 1
9392 9401 1
9393 9400 1
9399 9394 1
9399 9397 1
9407 9416 1
9407 9426 1
9407 9429 1
9408 9417 1
9408 9423 1
9408 9425 1
9409 9416 1
9409 9424 1
9415 9410 1
9415 9413 1
9415 9424 1
9416 9425 1
9417 9424 1
9423 9418 1
9423 9421 1
9431 9440 1
9431 9451 1
9431 9454 1
9432 9441 1
9432 9448 1
9432 9450 1
9433 9440 1
9433 9449 1
9439 9434 1
9439 9437 1
9439 9449 1
9440 9450 1
9441 9449 1
9448 9442 1
9448 9446 1
9456 9465 1
9456 9475 1
9456 9478 1
9457 9466 1
9457 9472 1
9457 9474 1
9458 9465 1
9458 9473 1
9464 9459 1
9464 9462 1
9464 9473 1
9465 9474 1
9466 9473 1
9472 9467 1
9472 9470 1
9480 9490 1
9480 9501 1
9480 9504 1
9481 9491 1
9481 9498 1
9481 9500 1
9482 9490 1
9482 9499 1
9489 9483 1
9489 9487 1
9489 9499 1
9490 9500 1
9491 9499 1
9498 9492 1
9498 9496 1
9506 9516 1
9506 9527 1
9506 9530 1
9507 9517 1
9507 9524 1
9507 9526 1
9508 9516 1
9508 9525 1
9515 9509 1
9515 9513 1
9515 9525 1
9516 9526 1
9517 9525 1
9524 9518 1
9524 9522 1
9532 9542 1
9532 9552 1
9532 9556 1
9533 9543 1
9533 9549 1
9533 9551 1
9534 9542 1
9534 9550 1
9541 9535 1
9541 9539 1
9541 9550 1
9542 9551 1
9543 9550 1
9549 9544 1
9549 9547 1
9558 9567 1
9558 9578 1
9558 9583 1
9559 9568 1
9559 9575 1
9559 9577 1
9560 9567 1
9560 9576 1
9566 9561 1
9566 9564 1
9566 9576 1
9567 9577 1
9568 9576 1
9575 9569 1
9575 9573 1
9585 9595 1
9585 9606 1
9585 9609 1
9586 9596 1
9586 9603 1
9586 9605 1
9587 9595 1
9587 9604 1
9594 9588 1
9594 9592 1
9594 9604 1
9595 9605 1
9596 9604 1
9603 9597 1
9603 9601 1
9611 9620 1
9611 9630 1
9611 9633 1
9612 9621 1
9612 9627 1
9612 9629 1
9613 9620 1
9613 9628 1
9619 9614 1
9619 9617 1
9619 9628 1
9620 9629 1
9621 9628 1
9627 9622 1
9627 9625 1
9635 9644 1
9635 9656 1
9635 9659 1
9636 9645 1
9636 9653 1
9636 9655 1
9637 9644 1
9637 9654 1
9643 9638 1
9643 9641 1
9643 9654 1
9644 9655 1
9645 9654 1
9653 9646 1
9653 9651 1
9661 9670 1
9661 9680 1
9661 9683 1
9662 9671 1
9662 9677 1
9662 9679 1
9663 9670 1
9663 9678 1
9669 9664 1
9669 9667 1
9669 9678 1
9670 9679 1
9671 9678 1
9677 9672 1
9677 9675 1
9685 9694 1
9685 9704 1
9685 9707 1
9686 9695 1
9686 9701 1
9686 9703 1
9687 9694 1
9687 9702 1
9693 9688 1
9693 9691 1
9693 9702 1
9694 9703 1
9695 9702 1
9701 9696 1
9701 9699 1
9709 9719 1
9709 9729 1
9709 9732 1
9710 9720 1
9710 9726 1
9710 9728 1
9711 9719 1
9711 9727 1
9718 9712 1
9718 9716 1
9718 9727 1
9719 9728 1
9720 9727 1
9726 9721 1
9726 9724 1
9734 9743 1
9734 9754 1
9734 9757 1
9735 9744 1
9735 9751 1
9735 9753 1
9736 9743 1
9736 9752 1
9742 9737 1
9742 9740 1
9742 9752 1
9743 9753 1
9744 9752 1
9751 9745 1
9751 9749 1
9759 9770 1
9759 9781 1
9759 9784 1
9760 9771 1
9760 9778 1
9760 9780 1
9761 9770 1
9761 9779 1
9769 9762 1
9769 9767 1
9769 9779 1
9770 9780 1
9771 9779 1
9778 9772 1
9778 9776 1
9786 9796 1
9786 9808 1
9786 9813 1
9787 9797 1
9787 9805 1
9787 9807 1
9788 9796 1
9788 9806 1
9795 9789 1
9795 9793 1
9795 9806 1
9796 9807 1
9797 9806 1
9805 9798 1
9805 9803 1
9815 9825 1
9815 9836 1
9815 9839 1
9816 9826 1
9816 9833 1
9816 9835 1
9817 9825 1
9817 9834 1
9824 9818 1
9824 9822 1
9824 9834 1
9825 9835 1
9826 9834 1
9833 9827 1
9833 9831 1
9841 9851 1
9841 9861 1
9841 9865 1
9842 9852 1
9842 9858 1
9842 9860 1
9843 9851 1
9843 9859 1
9850 9844 1
9850 9848 1
9850 9859 1
9851 9860 1
9852 9859 1
9858 9853 1
9858 9856 1
9867 9876 1
9867 9888 1
9867 9891 1
9868 9877 1
9868 9885 1
9868 9887 1
9869 9876 1
9869 9886 1
9875 9870 1
9875 9873 1
9875 9886 1
9876 9887 1
9877 9886 1
9885 9878 1
9885 9883 1
9893 9902 1
9893 9912 1
9893 9916 1
9894 9903 1
9894 9909 1
9894 9911 1
9895 9902 1
9895 9910 1
9901 9896 1
9901 9899 1
9901 9910 1
9902 9911 1
9903 9910 1
9909 9904 1
9909 9907 1
9918 9927 1
9918 9937 1
9918 9941 1
9919 9928 1
9919 9934 1
9919 9936 1
9920 9927 1
9920 9935 1
9926 9921 1
9926 9924 1
9926 9935 1
9927 9936 1
9928 9935 1
9934 9929 1
9934 9932 1
9943 9952 1
9943 9962 1
9943 9965 1
9944 9953 1
9944 9959 1
9944 9961 1
9945 9952 1
9945 9960 1
9951 9946 1
9951 9949 1
9951 9960 1
9952 9961 1
9953 9960 1
9959 9954 1
9959 9957 1
9967 9976 1
9967 9986 1
9967 9990 1
9968 9977 1
9968 9983 1
9968 9985 1
9969 9976 1
9969 9984 1
9975 9970 1
9975 9973 1
9975 9984 1
9976 9985 1
9977 9984 1
9983 9978 1
9983 9981 1
9992 10001 1
9992 10012 1
9992 10015 1
9993 10002 1
9993 10009 1
9993 10011 1
9994 10001 1
9994 10010 1
10000 9995 1
10000 9998 1
10000 10010 1
10001 10011 1
10002 10010 1
10009 10003 1
10009 10007 1
10017 10026 1
10017 10036 1
10017 10040 1
10018 10027 1
10018 10033 1
10018 10035 1
10019 10026 1
10019 10034 1
10025 10020 1
10025 10023 1
10025 10034 1
10026 10035 1
10027 10034 1
10033 10028 1
10033 10031 1
10042 10051 1
10042 10061 1
10042 10064 1
10043 10052 1
10043 10058 1
10043 10060 1
10044 10051 1
10044 10059 1
10050 10045 1
10050 10048 1
10050 10059 1
10051 10060 1
10052 10059 1
10058 10053 1
10058 10056 1
10066 10076 1
10066 10086 1
10066 10089 1
10067 10077 1
10067 10083 1
10067 10085 1
10068 10076 1
10068 10084 1
10075 10069 1
10075 10073 1
10075 10084 1
10076 10085 1
10077 10084 1
10083 10078 1
10083 10081 1
10091 10100 1
10091 10110 1
10091 10113 1
10092 10101 1
10092 10107 1
10092 10109 1
10093 10100 1
10093 10108 1
10099 10094 1
10099 10097 1
10099 10108 1
10100 10109 1
10101 10108 1
10107 10102 1
10107 10105 1
10115 10125 1
10115 10135 1
10115 10138 1
10116 10126 1
10116 10132 1
10116 10134 1
10117 10125 1
10117 10133 1
10124 10118 1
10124 10122 1
10124 10133 1
10125 10134 1
10126 10133 1
10132 10127 1
10132 10130 1
10140 10149 1
10140 10159 1
10140 10162 1
10141 10150 1
10141 10156 1
10141 10158 1
10142 10149 1
10142 10157 1
10148 10143 1
10148 10146 1
10148 10157 1
10149 10158 1
10150 10157 1
10156 10151 1
10156 10154 1
10164 10173 1
10164 10183 1
10164 10186 1
10165 10174 1
10165 10180 1
10165 10182 1
10166 10173 1
10166 10181 1
10172 10167 1
10172 10170 1
10172 10181 1
10173 10182 1
10174 10181 1
10180 10175 1
10180 10178 1
10188 10197 1
10188 10209 1
10188 10212 1
10189 10198 1
10189 10206 1
10189 10208 1
10190 10197 1
10190 10207 1
10196 10191 1
10196 10194 1
10196 10207 1
10197 10208 1
10198 10207 1
10206 10199 1
10206 10204 1
10214 10223 1
10214 10235 1
10214 10238 1
10215 10224 1
10215 10232 1
10215 10234 1
10216 10223 1
10216 10233 1
10222 10217 1
10222 10220 1
10222 10233 1
10223 10234 1
10224 10233 1
10232 10225 1
10232 10230 1
10240 10249 1
10240 10260 1
10240 10263 1
10241 10250 1
10241 10257 1
10241 10259 1
10242 10249 1
10242 10258 1
10248 10243 1
10248 10246 1
10248 10258 1
10249 10259 1
10250 10258 1
10257 10251 1
10257 10255 1
10265 10274 1
10265 10284 1
10265 10287 1
10266 10275 1
10266 10281 1
10266 10283 1
10267 10274 1
10267 10282 1
10273 10268 1
10273 10271 1
10273 10282 1
10274 10283 1
10275 10282 1
10281 10276 1
10281 10279 1
10289 10298 1
10289 10308 1
10289 10312 1
10290 10299 1
10290 10305 1
10290 10307 1
10291 10298 1
10291 10306 1
10297 10292 1
10297 10295 1
10297 10306 1
10298 10307 1
10299 10306 1
10305 10300 1
10305 10303 1
10314 10323 1
10314 10333 1
10314 10336 1
10315 10324 1
10315 10330 1
10315 10332 1
10316 10323 1
10316 10331 1
10322 10317 1
10322 10320 1
10322 10331 1
10323 10332 1
10324 10331 1
10330 10325 1
10330 10328 1
10338 10347 1
10338 10357 1
10338 10361 1
10339 10348 1
10339 10354 1
10339 10356 1
10340 10347 1
10340 10355 1
10346 10341 1
10346 10344 1
10346 10355 1
10347 10356 1
10348 10355 1
10354 10349 1
10354 10352 1
10363 10372 1
10363 10382 1
10363 10386 1
10364 10373 1
10364 10379 1
10364 10381 1
10365 10372 1
10365 10380 1
10371 10366 1
10371 10369 1
10371 10380 1
10372 10381 1
10373 10380 1
10379 10374 1
10379 10377 1
10388 10397 1
10388 10409 1
10388 10412 1
10389 10398 1
10389 10406 1
10389 10408 1
10390 10397 1
10390 10407 1
10396 10391 1
10396 10394 1
10396 10407 1
10397 10408 1
10398 10407 1
10406 10399 1
10406 10404 1
10414 10423 1
10414 10433 1
10414 10437 1
10415 10424 1
10415 10430 1
10415 10432 1
10416 10423 1
10416 10431 1
10422 10417 1
10422 10420 1
10422 10431 1
10423 10432 1
10424 10431 1
10430 10425 1
10430 10428 1
10439 10450 1
10439 10460 1
10439 10463 1
10440 10451 1
10440 10457 1
10440 10459 1
10441 10450 1
10441 10458 1
10449 10442 1
10449 10447 1
10449 10458 1
10450 10459 1
10451 10458 1
10457 10452 1
10457 10455 1
10465 10474 1
10465 10484 1
10465 10487 1
10466 10475 1
10466 10481 1
10466 10483 1
10467 10474 1
10467 10482 1
10473 10468 1
10473 10471 1
10473 10482 1
10474 10483 1
10475 10482 1
10481 10476 1
10481 10479 1
10489 10498 1
10489 10508 1
10489 10511 1
10490 10499 1
10490 10505 1
10490 10507 1
10491 10498 1
10491 10506 1
10497 10492 1
10497 10495 1
10497 10506 1
10498 10507 1
10499 10506 1
10505 10500 1
10505 10503 1
10513 10522 1
10513 10533 1
10513 10536 1
10514 10523 1
10514 10530 1
10514 10532 1
10515 10522 1
10515 10531 1
10521 10516 1
10521 10519 1
10521 10531 1
10522 10532 1
10523 10531 1
10530 10524 1
10530 10528 1
10538 10547 1
10538 10557 1
10538 10562 1
10539 10548 1
10539 10554 1
10539 10556 1
10540 10547 1
10540 10555 1
10546 10541 1
10546 10544 1
10546 10555 1
10547 10556 1
10548 10555 1
10554 10549 1
10554 10552 1
10564 10575 1
10564 10585 1
10564 10588 1
10565 10576 1
10565 10582 1
10565 10584 1
10566 10575 1
10566 10583 1
10574 10567 1
10574 10572 1
10574 10583 1
10575 10584 1
10576 10583 1
10582 10577 1
10582 10580 1
10590 10599 1
10590 10609 1
10590 10612 1
10591 10600 1
10591 10606 1
10591 10608 1
10592 10599 1
10592 10607 1
10598 10593 1
10598 10596 1
10598 10607 1
10599 10608 1
10600 10607 1
10606 10601 1
10606 10604 1
10614 10623 1
10614 10633 1
10614 10638 1
10615 10624 1
10615 10630 1
10615 10632 1
10616 10623 1
10616 10631 1
10622 10617 1
10622 10620 1
10622 10631 1
10623 10632 1
10624 10631 1
10630 10625 1
10630 10628 1
10640 10649 1
10640 10659 1
10640 10662 1
10641 10650 1
10641 10656 1
10641 10658 1
10642 10649 1
10642 10657 1
10648 10643 1
10648 10646 1
10648 10657 1
10649 10658 1
10650 10657 1
10656 10651 1
10656 10654 1
10664 10673 1
10664 10684 1
10664 10689 1
10665 10674 1
10665 10681 1
10665 10683 1
10666 10673 1
10666 10682 1
10672 10667 1
10672 10670 1
10672 10682 1
10673 10683 1
10674 10682 1
10681 10675 1
10681 10679 1
10691 10701 1
10691 10711 1
10691 10714 1
10692 10702 1
10692 10708 1
10692 10710 1
10693 10701 1
10693 10709 1
10700 10694 1
10700 10698 1
10700 10709 1
10701 10710 1
10702 10709 1
10708 10703 1
10708 10706 1
10716 10725 1
10716 10736 1
10716 10739 1
10717 10726 1
10717 10733 1
10717 10735 1
10718 10725 1
10718 10734 1
10724 10719 1
10724 10722 1
10724 10734 1
10725 10735 1
10726 10734 1
10733 10727 1
10733 10731 1
10741 10750 1
10741 10760 1
10741 10763 1
10742 10751 1
10742 10757 1
10742 10759 1
10743 10750 1
10743 10758 1
10749 10744 1
10749 10747 1
10749 10758 1
10750 10759 1
10751 10758 1
10757 10752 1
10757 10755 1
10765 10774 1
10765 10784 1
10765 10787 1
10766 10775 1
10766 10781 1
10766 10783 1
10767 10774 1
10767 10782 1
10773 10768 1
10773 10771 1
10773 10782 1
10774 10783 1
10775 10782 1
10781 10776 1
10781 10779 1
10789 10798 1
10789 10808 1
10789 10812 1
10790 10799 1
10790 10805 1
10790 10807 1
10791 10798 1
10791 10806 1
10797 10792 1
10797 10795 1
10797 10806 1
10798 10807 1
10799 10806 1
10805 10800 1
10805 10803 1
10814 10824 1
10814 10834 1
10814 10837 1
10815 10825 1
10815 10831 1
10815 10833 1
10816 10824 1
10816 10832 1
10823 10817 1
10823 10821 1
10823 10832 1
10824 10833 1
10825 10832 1
10831 10826 1
10831 10829 1
10839 10850 1
10839 10860 1
10839 10863 1
10840 10851 1
10840 10857 1
10840 10859 1
10841 10850 1
10841 10858 1
10849 10842 1
10849 10847 1
10849 10858 1
10850 10859 1
10851 10858 1
10857 10852 1
10857 10855 1
10865 10875 1
10865 10885 1
10865 10890 1
10866 10876 1
10866 10882 1
10866 10884 1
10867 10875 1
10867 10883 1
10874 10868 1
10874 10872 1
10874 10883 1
10875 10884 1
10876 10883 1
10882 10877 1
10882 10880 1
10892 10901 1
10892 10911 1
10892 10914 1
10893 10902 1
10893 10908 1
10893 10910 1
10894 10901 1
10894 10909 1
10900 10895 1
10900 10898 1
10900 10909 1
10901 10910 1
10902 10909 1
10908 10903 1
10908 10906 1
10916 10925 1
10916 10935 1
10916 10938 1
10917 10926 1
10917 10932 1
10917 10934 1
10918 10925 1
10918 10933 1
10924 10919 1
10924 10922 1
10924 10933 1
10925 10934 1
10926 10933 1
10932 10927 1
10932 10930 1
10940 10950 1
10940 10962 1
10940 10965 1
10941 10951 1
10941 10959 1
10941 10961 1
10942 10950 1
10942 10960 1
10949 10943 1
10949 10947 1
10949 10960 1
10950 10961 1
10951 10960 1
10959 10952 1
10959 10957 1
10967 10976 1
10967 10986 1
10967 10989 1
10968 10977 1
10968 10983 1
10968 10985 1
10969 10976 1
10969 10984 1
10975 10970 1
10975 10973 1
10975 10984 1
10976 10985 1
10977 10984 1
10983 10978 1
10983 10981 1
10991 11000 1
10991 11010 1
10991 11014 1
10992 11001 1
10992 11007 1
10992 11009 1
10993 11000 1
10993 11008 1
10999 10994 1
10999 10997 1
10999 11008 1
11000 11009 1
11001 11008 1
11007 11002 1
11007 11005 1
11016 11025 1
11016 11036 1
11016 11039 1
11017 11026 1
11017 11033 1
11017 11035 1
11018 11025 1
11018 11034 1
11024 11019 1
11024 11022 1
11024 11034 1
11025 11035 1
11026 11034 1
11033 11027 1
11033 11031 1
11041 11050 1
11041 11060 1
11041 11063 1
11042 11051 1
11042 11057 1
11042 11059 1
11043 11050 1
11043 11058 1
11049 11044 1
11049 11047 1
11049 11058 1
11050 11059 1
11051 11058 1
11057 11052 1
11057 11055 1
11065 11074 1
11065 11084 1
11065 11087 1
11066 11075 1
11066 11081 1
11066 11083 1
11067 11074 1
11067 11082 1
11073 11068 1
11073 11071 1
11073 11082 1
11074 11083 1
11075 11082 1
11081 11076 1
11081 11079 1
11089 11098 1
11089 11108 1
11089 11111 1
11090 11099 1
11090 11105 1
11090 11107 1
11091 11098 1
11091 11106 1
11097 11092 1
11097 11095 1
11097 11106 1
11098 11107 1
11099 11106 1
11105 11100 1
11105 11103 1
11113 11122 1
11113 11132 1
11113 11136 1
11114 11123 1
11114 11129 1
11114 11131 1
11115 11122 1
11115 11130 1
11121 11116 1
11121 11119 1
11121 11130 1
11122 11131 1
11123 11130 1
11129 11124 1
11129 11127 1
11138 11147 1
11138 11158 1
11138 11161 1
11139 11148 1
11139 11155 1
11139 11157 1
11140 11147 1
11140 11156 1
11146 11141 1
11146 11144 1
11146 11156 1
11147 11157 1
11148 11156 1
11155 11149 1
11155 11153 1
11163 11172 1
11163 11184 1
11163 11187 1
11164 11173 1
11164 11181 1
11164 11183 1
11165 11172 1
11165 11182 1
11171 11166 1
11171 11169 1
11171 11182 1
11172 11183 1
11173 11182 1
11181 11174 1
11181 11179 1
11189 11198 1
11189 11210 1
11189 11215 1
11190 11199 1
11190 11207 1
11190 11209 1
11191 11198 1
11191 11208 1
11197 11192 1
11197 11195 1
11197 11208 1
11198 11209 1
11199 11208 1
11207 11200 1
11207 11205 1
11217 11226 1
11217 11237 1
11217 11242 1
11218 11227 1
11218 11234 1
11218 11236 1
11219 11226 1
11219 11235 1
11225 11220 1
11225 11223 1
11225 11235 1
11226 11236 1
11227 11235 1
11234 11228 1
11234 11232 1
11244 11253 1
11244 11263 1
11244 11266 1
11245 11254 1
11245 11260 1
11245 11262 1
11246 11253 1
11246 11261 1
11252 11247 1
11252 11250 1
11252 11261 1
11253 11262 1
11254 11261 1
11260 11255 1
11260 11258 1
11268 11277 1
11268 11288 1
11268 11291 1
11269 11278 1
11269 11285 1
11269 11287 1
11270 11277 1
11270 11286 1
11276 11271 1
11276 11274 1
11276 11286 1
11277 11287 1
11278 11286 1
11285 11279 1
11285 11283 1
11293 11302 1
11293 11312 1
11293 11315 1
11294 11303 1
11294 11309 1
11294 11311 1
11295 11302 1
11295 11310 1
11301 11296 1
11301 11299 1
11301 11310 1
11302 11311 1
11303 11310 1
11309 11304 1
11309 11307 1
11317 11326 1
11317 11336 1
11317 11339 1
11318 11327 1
11318 11333 1
11318 11335 1
11319 11326 1
11319 11334 1
11325 11320 1
11325 11323 1
11325 11334 1
11326 11335 1
11327 11334 1
11333 11328 1
11333 11331 1
11341 11350 1
11341 11360 1
11341 11363 1
11342 11351 1
11342 11357 1
11342 11359 1
11343 11350 1
11343 11358 1
11349 11344 1
11349 11347 1
11349 11358 1
11350 11359 1
11351 11358 1
11357 11352 1
11357 11355 1
11365 11374 1
11365 11384 1
11365 11387 1
11366 11375 1
11366 11381 1
11366 11383 1
11367 11374 1
11367 11382 1
11373 11368 1
11373 11371 1
11373 11382 1
11374 11383 1
11375 11382 1
11381 11376 1
11381 11379 1
11389 11398 1
11389 11409 1
11389 11412 1
11390 11399 1
11390 11406 1
11390 11408 1
11391 11398 1
11391 11407 1
11397 11392 1
11397 11395 1
11397 11407 1
11398 11408 1
11399 11407 1
11406 11400 1
11406 11404 1
11414 11423 1
11414 11433 1
11414 11436 1
11415 11424 1
11415 11430 1
11415 11432 1
11416 11423 1
11416 11431 1
11422 11417 1
11422 11420 1
11422 11431 1
11423 11432 1
11424 11431 1
11430 11425 1
11430 11428 1
11438 11447 1
11438 11457 1
11438 11460 1
11439 11448 1
11439 11454 1
11439 11456 1
11440 11447 1
11440 11455 1
11446 11441 1
11446 11444 1
11446 11455 1
11447 11456 1
11448 11455 1
11454 11449 1
11454 11452 1
11462 11471 1
11462 11483 1
11462 11486 1
11463 11472 1
11463 11480 1
11463 11482 1
11464 11471 1
11464 11481 1
11470 11465 1
11470 11468 1
11470 11481 1
11471 11482 1
11472 11481 1
11480 11473 1
11480 11478 1
11488 11497 1
11488 11507 1
11488 11510 1
11489 11498 1
11489 11504 1
11489 11506 1
11490 11497 1
11490 11505 1
11496 11491 1
11496 11494 1
11496 11505 1
11497 11506 1
11498 11505 1
11504 11499 1
11504 11502 1
11512 11521 1
11512 11533 1
11512 11538 1
11513 11522 1
11513 11530 1
11513 11532 1
11514 11521 1
11514 11531 1
11520 11515 1
11520 11518 1
11520 11531 1
11521 11532 1
11522 11531 1
11530 11523 1
11530 11528 1
11540 11549 1
11540 11559 1
11540 11563 1
11541 11550 1
11541 11556 1
11541 11558 1
11542 11549 1
11542 11557 1
11548 11543 1
11548 11546 1
11548 11557 1
11549 11558 1
11550 11557 1
11556 11551 1
11556 11554 1
11565 11574 1
11565 11584 1
11565 11587 1
11566 11575 1
11566 11581 1
11566 11583 1
11567 11574 1
11567 11582 1
11573 11568 1
11573 11571 1
11573 11582 1
11574 11583 1
11575 11582 1
11581 11576 1
11581 11579 1
11589 11598 1
11589 11610 1
11589 11613 1
11590 11599 1
11590 11607 1
11590 11609 1
11591 11598 1
11591 11608 1
11597 11592 1
11597 11595 1
11597 11608 1
11598 11609 1
11599 11608 1
11607 11600 1
11607 11605 1
11615 11624 1
11615 11634 1
11615 11637 1
11616 11625 1
11616 11631 1
11616 11633 1
11617 11624 1
11617 11632 1
11623 11618 1
11623 11621 1
11623 11632 1
11624 11633 1
11625 11632 1
11631 11626 1
11631 11629 1
11639 11648 1
11639 11658 1
11639 11661 1
11640 11649 1
11640 11655 1
11640 11657 1
11641 11648 1
11641 11656 1
11647 11642 1
11647 11645 1
11647 11656 1
11648 11657 1
11649 11656 1
11655 11650 1
11655 11653 1
11663 11674 1
11663 11686 1
11663 11689 1
11664 11675 1
11664 11683 1
11664 11685 1
11665 11674 1
11665 11684 1
11673 11666 1
11673 11671 1
11673 11684 1
11674 11685 1
11675 11684 1
11683 11676 1
11683 11681 1
11691 11700 1
11691 11710 1
11691 11714 1
11692 11701 1
11692 11707 1
11692 11709 1
11693 11700 1
11693 11708 1
11699 11694 1
11699 11697 1
11699 11708 1
11700 11709 1
11701 11708 1
11707 11702 1
11707 11705 1
11716 11725 1
11716 11735 1
11716 11738 1
11717 11726 1
11717 11732 1
11717 11734 1
11718 11725 1
11718 11733 1
11724 11719 1
11724 11722 1
11724 11733 1
11725 11734 1
11726 11733 1
11732 11727 1
11732 11730 1
11740 11749 1
11740 11759 1
11740 11762 1
11741 11750 1
11741 11756 1
11741 11758 1
11742 11749 1
11742 11757 1
11748 11743 1
11748 11746 1
11748 11757 1
11749 11758 1
11750 11757 1
11756 11751 1
11756 11754 1
11764 11773 1
11764 11783 1
11764 11786 1
11765 11774 1
11765 11780 1
11765 11782 1
11766 11773 1
11766 11781 1
11772 11767 1
11772 11770 1
11772 11781 1
11773 11782 1
11774 11781 1
11780 11775 1
11780 11778 1
11788 11798 1
11788 11808 1
11788 11811 1
11789 11799 1
11789 11805 1
11789 11807 1
11790 11798 1
11790 11806 1
11797 11791 1
11797 11795 1
11797 11806 1
11798 11807 1
11799 11806 1
11805 11800 1
11805 11803 1
11813 11822 1
11813 11832 1
11813 11836 1
11814 11823 1
11814 11829 1
11814 11831 1
11815 11822 1
11815 11830 1
11821 11816 1
11821 11819 1
11821 11830 1
11822 11831 1
11823 11830 1
11829 11824 1
11829 11827 1
11838 11847 1
11838 11857 1
11838 11861 1
11839 11848 1
11839 11854 1
11839 11856 1
11840 11847 1
11840 11855 1
11846 11841 1
11846 11844 1
11846 11855 1
11847 11856 1
11848 11855 1
11854 11849 1
11854 11852 1
11863 11872 1
11863 11882 1
11863 11885 1
11864 11873 1
11864 11879 1
11864 11881 1
11865 11872 1
11865 11880 1
11871 11866 1
11871 11869 1
11871 11880 1
11872 11881 1
11873 11880 1
11879 11874 1
11879 11877 1
11887 11896 1
11887 11906 1
11887 11910 1
11888 11897 1
11888 11903 1
11888 11905 1
11889 11896 1
11889 11904 1
11895 11890 1
11895 11893 1
11895 11904 1
11896 11905 1
11897 11904 1
11903 11898 1
11903 11901 1
11912 11921 1
11912 11931 1
11912 11935 1
11913 11922 1
11913 11928 1
11913 11930 1
11914 11921 1
11914 11929 1
11920 11915 1
11920 11918 1
11920 11929 1
11921 11930 1
11922 11929 1
11928 11923 1
11928 11926 1
11937 11946 1
11937 11956 1
11937 11959 1
11938 11947 1
11938 11953 1
11938 11955 1
11939 11946 1
11939 11954 1
11945 11940 1
11945 11943 1
11945 11954 1
11946 11955 1
11947 11954 1
11953 11948 1
11953 11951 1
11961 11970 1
11961 11981 1
11961 11984 1
11962 11971 1
11962 11978 1
11962 11980 1
11963 11970 1
11963 11979 1
11969 11964 1
11969 11967 1
11969 11979 1
11970 11980 1
11971 11979 1
11978 11972 1
11978 11976 1
11986 11997 1
11986 12007 1
11986 12012 1
11987 11998 1
11987 12004 1
11987 12006 1
11988 11997 1
11988 12005 1
11996 11989 1
11996 11994 1
11996 12005 1
11997 12006 1
11998 12005 1
12004 11999 1
12004 12002 1
12014 12023 1
12014 12033 1
12014 12036 1
12015 12024 1
12015 12030 1
12015 12032 1
12016 12023 1
12016 12031 1
12022 12017 1
12022 12020 1
12022 12031 1
12023 12032 1
12024 12031 1
12030 12025 1
12030 12028 1
12038 12047 1
12038 12057 1
12038 12060 1
12039 12048 1
12039 12054 1
12039 12056 1
12040 12047 1
12040 12055 1
12046 12041 1
12046 12044 1
12046 12055 1
12047 12056 1
12048 12055 1
12054 12049 1
12054 12052 1
12062 12073 1
12062 12083 1
12062 12086 1
12063 12074 1
12063 12080 1
12063 12082 1
12064 12073 1
12064 12081 1
12072 12065 1
12072 12070 1
12072 12081 1
12073 12082 1
12074 12081 1
12080 12075 1
12080 12078 1
12088 12097 1
12088 12107 1
12088 12110 1
12089 12098 1
12089 12104 1
12089 12106 1
12090 12097 1
12090 12105 1
12096 12091 1
12096 12094 1
12096 12105 1
12097 12106 1
12098 12105 1
12104 12099 1
12104 12102 1
12112 12121 1
12112 12131 1
12112 12134 1
12113 12122 1
12113 12128 1
12113 12130 1
12114 12121 1
12114 12129 1
12120 12115 1
12120 12118 1
12120 12129 1
12121 12130 1
12122 12129 1
12128 12123 1
12128 12126 1
12136 12145 1
12136 12155 1
12136 12158 1
12137 12146 1
12137 12152 1
12137 12154 1
12138 12145 1
12138 12153 1
12144 12139 1
12144 12142 1
12144 12153 1
12145 12154 1
12146 12153 1
12152 12147 1
12152 12150 1
12160 12169 1
12160 12179 1
12160 12182 1
12161 12170 1
12161 12176 1
12161 12178 1
12162 12169 1
12162 12177 1
12168 12163 1
12168 12166 1
12168 12177 1
12169 12178 1
12170 12177 1
12176 12171 1
12176 12174 1
12184 12195 1
12184 12206 1
12184 12211 1
12185 12196 1
12185 12203 1
12185 12205 1
12186 12195 1
12186 12204 1
12194 12187 1
12194 12192 1
12194 12204 1
12195 12205 1
12196 12204 1
12203 12197 1
12203 12201 1
12213 12222 1
12213 12232 1
12213 12235 1
12214 12223 1
12214 12229 1
12214 12231 1
12215 12222 1
12215 12230 1
12221 12216 1
12221 12219 1
12221 12230 1
12222 12231 1
12223 12230 1
12229 12224 1
12229 12227 1
12237 12248 1
12237 12258 1
12237 12261 1
12238 12249 1
12238 12255 1
12238 12257 1
12239 12248 1
12239 12256 1
12247 12240 1
12247 12245 1
12247 12256 1
12248 12257 1
12249 12256 1
12255 12250 1
12255 12253 1
12263 12272 1
12263 12282 1
12263 12285 1
12264 12273 1
12264 12279 1
12264 12281 1
12265 12272 1
12265 12280 1
12271 12266 1
12271 12269 1
12271 12280 1
12272 12281 1
12273 12280 1
12279 12274 1
12279 12277 1
12287 12296 1
12287 12306 1
12287 12309 1
12288 12297 1
12288 12303 1
12288 12305 1
12289 12296 1
12289 12304 1
12295 12290 1
12295 12293 1
12295 12304 1
12296 12305 1
12297 12304 1
12303 12298 1
12303 12301 1
12311 12320 1
12311 12330 1
12311 12333 1
12312 12321 1
12312 12327 1
12312 12329 1
12313 12320 1
12313 12328 1
12319 12314 1
12319 12317 1
12319 12328 1
12320 12329 1
12321 12328 1
12327 12322 1
12327 12325 1
12335 12344 1
12335 12354 1
12335 12357 1
12336 12345 1
12336 12351 1
12336 12353 1
12337 12344 1
12337 12352 1
12343 12338 1
12343 12341 1
12343 12352 1
12344 12353 1
12345 12352 1
12351 12346 1
12351 12349 1
12359 12368 1
12359 12378 1
12359 12381 1
12360 12369 1
12360 12375 1
12360 12377 1
12361 12368 1
12361 12376 1
12367 12362 1
12367 12365 1
12367 12376 1
12368 12377 1
12369 12376 1
12375 12370 1
12375 12373 1
12383 12392 1
12383 12402 1
12383 12405 1
12384 12393 1
12384 12399 1
12384 12401 1
12385 12392 1
12385 12400 1
12391 12386 1
12391 12389 1
12391 12400 1
12392 12401 1
12393 12400 1
12399 12394 1
12399 12397 1
12407 12416 1
12407 12428 1
12407 12431 1
12408 12417 1
12408 12425 1
12408 12427 1
12409 12416 1
12409 12426 1
12415 12410 1
12415 12413 1
12415 12426 1
12416 12427 1
12417 12426 1
12425 12418 1
12425 12423 1
12433 12442 1
12433 12452 1
12433 12455 1
12434 12443 1
12434 12449 1
12434 12451 1
12435 12442 1
12435 12450 1
12441 12436 1
12441 12439 1
12441 12450 1
12442 12451 1
12443 12450 1
12449 12444 1
12449 12447 1
12457 12466 1
12457 12476 1
12457 12479 1
12458 12467 1
12458 12473 1
12458 12475 1
12459 12466 1
12459 12474 1
12465 12460 1
12465 12463 1
12465 12474 1
12466 12475 1
12467 12474 1
12473 12468 1
12473 12471 1
12481 12490 1
12481 12502 1
12481 12505 1
12482 12491 1
12482 12499 1
12482 12501 1
12483 12490 1
12483 12500 1
12489 12484 1
12489 12487 1
12489 12500 1
12490 12501 1
12491 12500 1
12499 12492 1
12499 12497 1
12507 12516 1
12507 12528 1
12507 12531 1
12508 12517 1
12508 12525 1
12508 12527 1
12509 12516 1
12509 12526 1
12515 12510 1
12515 12513 1
12515 12526 1
12516 12527 1
12517 12526 1
12525 12518 1
12525 12523 1
12533 12542 1
12533 12552 1
12533 12557 1
12534 12543 1
12534 12549 1
12534 12551 1
12535 12542 1
12535 12550 1
12541 12536 1
12541 12539 1
12541 12550 1
12542 12551 1
12543 12550 1
12549 12544 1
12549 12547 1
12559 12568 1
12559 12578 1
12559 12581 1
12560 12569 1
12560 12575 1
12560 12577 1
12561 12568 1
12561 12576 1
12567 12562 1
12567 12565 1
12567 12576 1
12568 12577 1
12569 12576 1
12575 12570 1
12575 12573 1
12583 12592 1
12583 12602 1
12583 12605 1
12584 12593 1
12584 12599 1
12584 12601 1
12585 12592 1
12585 12600 1
12591 12586 1
12591 12589 1
12591 12600 1
12592 12601 1
12593 12600 1
12599 12594 1
12599 12597 1
12607 12616 1
12607 12626 1
12607 12629 1
12608 12617 1
12608 12623 1
12608 12625 1
12609 12616 1
12609 12624 1
12615 12610 1
12615 12613 1
12615 12624 1
12616 12625 1
12617 12624 1
12623 12618 1
12623 12621 1
12631 12640 1
12631 12650 1
12631 12653 1
12632 12641 1
12632 12647 1
12632 12649 1
12633 12640 1
12633 12648 1
12639 12634 1
12639 12637 1
12639 12648 1
12640 12649 1
12641 12648 1
12647 12642 1
12647 12645 1
12655 12664 1
12655 12674 1
12655 12679 1
12656 12665 1
12656 12671 1
12656 12673 1
12657 12664 1
12657 12672 1
12663 12658 1
12663 12661 1
12663 12672 1
12664 12673 1
12665 12672 1
12671 12666 1
12671 12669 1
12681 12690 1
12681 12700 1
12681 12703 1
12682 12691 1
12682 12697 1
12682 12699 1
12683 12690 1
12683 12698 1
12689 12684 1
12689 12687 1
12689 12698 1
12690 12699 1
12691 12698 1
12697 12692 1
12697 12695 1
12705 12714 1
12705 12724 1
12705 12727 1
12706 12715 1
12706 12721 1
12706 12723 1
12707 12714 1
12707 12722 1
12713 12708 1
12713 12711 1
12713 12722 1
12714 12723 1
12715 12722 1
12721 12716 1
12721 12719 1
12729 12738 1
12729 12748 1
12729 12751 1
12730 12739 1
12730 12745 1
12730 12747 1
12731 12738 1
12731 12746 1
12737 12732 1
12737 12735 1
12737 12746 1
12738 12747 1
12739 12746 1
12745 12740 1
12745 12743 1
12753 12762 1
12753 12772 1
12753 12775 1
12754 12763 1
12754 12769 1
12754 12771 1
12755 12762 1
12755 12770 1
12761 12756 1
12761 12759 1
12761 12770 1
12762 12771 1
12763 12770 1
12769 12764 1
12769 12767 1
12777 12786 1
12777 12796 1
12777 12799 1
12778 12787 1
12778 12793 1
12778 12795 1
12779 12786 1
12779 12794 1
12785 12780 1
12785 12783 1
12785 12794 1
12786 12795 1
12787 12794 1
12793 12788 1
12793 12791 1
12801 12810 1
12801 12820 1
12801 12823 1
12802 12811 1
12802 12817 1
12802 12819 1
12803 12810 1
12803 12818 1
12809 12804 1
12809 12807 1
12809 12818 1
12810 12819 1
12811 12818 1
12817 12812 1
12817 12815 1
12825 12834 1
12825 12846 1
12825 12849 1
12826 12835 1
12826 12843 1
12826 12845 1
12827 12834 1
12827 12844 1
12833 12828 1
12833 12831 1
12833 12844 1
12834 12845 1
12835 12844 1
12843 12836 1
12843 12841 1
12851 12860 1
12851 12872 1
12851 12877 1
12852 12861 1
12852 12869 1
12852 12871 1
12853 12860 1
12853 12870 1
12859 12854 1
12859 12857 1
12859 12870 1
12860 12871 1
12861 12870 1
12869 12862 1
12869 12867 1
12879 12888 1
12879 12898 1
12879 12901 1
12880 12889 1
12880 12895 1
12880 12897 1
12881 12888 1
12881 12896 1
12887 12882 1
12887 12885 1
12887 12896 1
12888 12897 1
12889 12896 1
12895 12890 1
12895 12893 1
12903 12914 1
12903 12924 1
12903 12927 1
12904 12915 1
12904 12921 1
12904 12923 1
12905 12914 1
12905 12922 1
12913 12906 1
12913 12911 1
12913 12922 1
12914 12923 1
12915 12922 1
12921 12916 1
12921 12919 1
12929 12938 1
12929 12948 1
12929 12951 1
12930 12939 1
12930 12945 1
12930 12947 1
12931 12938 1
12931 12946 1
12937 12932 1
12937 12935 1
12937 12946 1
12938 12947 1
12939 12946 1
12945 12940 1
12945 12943 1
12953 12962 1
12953 12972 1
12953 12975 1
12954 12963 1
12954 12969 1
12954 12971 1
12955 12962 1
12955 12970 1
12961 12956 1
12961 12959 1
12961 12970 1
12962 12971 1
12963 12970 1
12969 12964 1
12969 12967 1

[ dihedrals ]
2 3 4 5 3 33.20422 0.00000 -33.20422 0.00000 0.00000 0.00000 ; methylguanidinium ion
2 3 4 9 3 20.50160 0.00000 -20.50160 0.00000 0.00000 0.00000 ; imides
3 4 5 6 3 25.47638 0.00000 -25.47638 0.00000 0.00000 0.00000 ; amides O-C(O)-N-C
3 4 5 7 3
3 4 5 8 3
9 4 5 6 3 20.50160 0.00000 -20.50160 0.00000 0.00000 0.00000 ; amides wlj 6/20/97
9 4 5 7 3
9 4 5 8 3
11 12 13 14 3 33.20422 0.00000 -33.20422 0.00000 0.00000 0.00000 ; methylguanidinium ion
11 12 13 18 3 20.50160 0.00000 -20.50160 0.00000 0.00000 0.00000 ; imides
12 13 14 15 3 25.47638 0.00000 -25.47638 0.00000 0.00000 0.00000 ; amides O-C(O)-N-C
12 13 14 16 3
12 13 14 17 3
18 13 14 15 3 20.50160 0.00000 -20.50160 0.00000 0.00000 0.00000 ; amides wlj 6/20/97
18 13 14 16 3
18 13 14 17 3
20 21 22 23 3 33.20422 0.00000 -33.20422 0.00000 0.00000 0.00000 ; methylguanidinium ion
20 21 22 27 3 20.50160 0.00000 -20.50160 0.00000 0.00000 0.00000 ; imides
21 22 23 24 3 25.47638 0.00000 -25.47638 0.00000 0.00000 0.00000 ; amides O-C(O)-N-C
21 22 23 25 3
21 22 23 26 3
27 22 23 24 3 20.50160 0.00000 -20.50160 0.00000 0.00000 0.00000 ; amides wlj 6/20/97
27 22 23 25 3
27 22 23 26 3
29 30 31 32 3 33.20422 0.00000 -33.20422 0.00000 0.00000 0.00000 ; methylguanidinium ion
29 30 31 36 3 20.50160 0.00000 -20.50160 0.00000 0.00000 0.00000 ; imides
30 31 32 33 3 25.47638 0.00000 -25.47638 0.00000 0.00000 0.00000 ; amides O-C(O)-N-C
30 31 32 34 3
30 31 32 35 3
36 31 32 33 3 20.50160 0.00000 -20.50160 0.00000 0.00000 0.00000 ; amides wlj 6/20/97
36 31 32 34 3
36 31 32 35 3
38 39 40 41 3 33.20422 0.00000 -33.20422 0.00000 0.00000 0.00000 ; methylguanidinium ion
38 39 40 46 3 20.50160 0.00000 -20.50160 0.00000 0.00000 0.00000 ; imides
39 40 41 42 3 25.47638 0.00000 -25.47638 0.00000 0.00000 0.00000 ; amides O-C(O)-N-C
39 40 41 44 3
39 40 41 45 3
40 41 42 43 3 16.73600 4.18400 -20.92000 0.00000 0.00000 0.00000 ; carbamates
44 41 42 43 3
45 41 42 43 3
46 40 41 42 3 20.50160 0.00000 -20.50160 0.00000 0.00000 0.00000 ; amides wlj 6/20/97
46 40 41 44 3
46 40 41 45 3
48 49 50 51 3 33.20422 0.00000 -33.20422 0.00000 0.00000 0.00000 ; methylguanidinium ion
48 49 50 56 3 20.50160 0.00000 -20.50160 0.00000 0.00000 0.00000 ; imides
49 50 51 52 3 25.47638 0.00000 -25.47638 0.00000 0.00000 0.00000 ; amides O-C(O)-N-C
49 50 51 54 3
49 50 51 55 3
50 51 52 53 3 16.73600 4.18400 -20.92000 0.00000 0.00000 0.00000 ; carbamates
54 51 52 53 3
55 51 52 53 3
56 50 51 52 3 20.50160 0.00000 -20.50160 0.00000 0.00000 0.00000 ; amides wlj 6/20/97
56 50 51 54 3
56 50 51 55 3
58 59 60 61 3 33.20422 0.00000 -33.20422 0.00000 0.00000 0.00000 ; methylguanidinium ion
58 59 60 65 3 20.50160 0.00000 -20.50160 0.00000 0.00000 0.00000 ; imides
59 60 61 62 3 25.47638 0.00000 -25.47638 0.00000 0.00000 0.00000 ; amides O-C(O)-N-C
59 60 61 63 3
59 60 61 64 3
65 60 61 62 3 20.50160 0.00000 -20.50160 0.00000 0.00000 0.00000 ; amides wlj 6/20/97
65 60 61 63 3
65 60 61 64 3
67 68 69 70 3 33.20422 0.00000 -33.20422 0.00000 0.00000 0.00000 ; methylguanidinium ion
67 68 69 74 3 20.50160 0.00000 -20.50160 0.00000 0.00000 0.00000 ; imides
68 69 70 71 3 25.47638 0.00000 -25.47638 0.00000 0.00000 0.00000 ; amides O-C(O)-N-C
68 69 70 72 3
68 69 70 73 3
74 69 70 71 3 20.50160 0.00000 -20.50160 0.00000 0.00000 0.00000 ; amides wlj 6/20/97
74 69 70 72 3
74 69 70 73 3
76 77 78 79 3 33.20422 0.00000 -33.20422 0.00000 0.00000 0.00000 ; methylguanidinium ion
76 77 78 83 3 20.50160 0.00000 -20.50160 0.00000 0.00000 0.00000 ; imides
77 78 79 80 3 25.47638 0.00000 -25.47638 0.00000 0.00000 0.00000 ; amides O-C(O)-N-C
77 78 79 81 3
77 78 79 82 3
83 78 79 80 3 20.50160 0.00000 -20.50160 0.00000 0.00000 0.00000 ; amides wlj 6/20/97
83 78 79 81 3
83 78 79 82 3
85 86 87 88 3 33.20422 0.00000 -33.20422 0.00000 0.00000 0.00000 ; methylguanidinium ion
85 86 87 92 3 20.50160 0.00000 -20.50160 0.00000 0.00000 0.00000 ; imides
86 87 88 89 3 25.47638 0.00000 -25.47638 0.00000 0.00000 0.00000 ; amides O-C(O)-N-C
86 87 88 90 3
86 87 88 91 3
92 87 88 89 3 20.50160 0.00000 -20.50160 0.00000 0.00000 0.00000 ; amides wlj 6/20/97
92 87 88 90 3
92 87 88 91 3
94 95 96 97 3 33.20422 0.00000 -33.20422 0.00000 0.00000 0.00000 ; methylguanidinium ion
94 95 96 102 3 20.50160 0.00000 -20.50160 0.00000 0.00000 0.00000 ; imides
95 96 97 98 3 25.47638 0.00000 -25.47638 0.00000 0.00000 0.00000 ; amides O-C(O)-N-C
95 96 97 100 3
95 96 97 101 3
96 97 98 99 3 16.73600 4.18400 -20.92000 0.00000 0.00000 0.00000 ; carbamates
100 97 98 99 3
101 97 98 99 3
102 96 97 98 3 20.50160 0.00000 -20.50160 0.00000 0.00000 0.00000 ; amides wlj 6/20/97
102 96 97 100 3
102 96 97 101 3
104 105 106 107 3 33.20422 0.00000 -33.20422 0.00000 0.00000 0.00000 ; methylguanidinium ion
104 105 106 111 3 20.50160 0.00000 -20.50160 0.00000 0.00000 0.00000 ; imides
105 106 107 108 3 25.47638 0.00000 -25.47638 0.00000 0.00000 0.00000 ; amides O-C(O)-N-C
105 106 107 109 3
105 106 107 110 3
111 106 107 108 3 20.50160 0.00000 -20.50160 0.00000 0.00000 0.00000 ; amides wlj 6/20/97
111 106 107 109 3
111 106 107 110 3
113 114 115 116 3 33.20422 0.00000 -33.20422 0.00000 0.00000 0.00000 ; methylguanidinium ion
113 114 115 120 3 20.50160 0.00000 -20.50160 0.00000 0.00000 0.00000 ; imides
114 115 116 117 3 25.47638 0.00000 -25.47638 0.00000 0.00000 0.00000 ; amides O-C(O)-N-C
114 115 116 118 3
114 115 116 119 3
120 115 116 117 3 20.50160 0.00000 -20.50160 0.00000 0.00000 0.00000 ; amides wlj 6/20/97
120 115 116 118 3
120 115 116 119 3
122 123 124 125 3 33.20422 0.00000 -33.20422 0.00000 0.00000 0.00000 ; methylguanidinium ion
122 123 124 129 3 20.50160 0.00000 -20.50160 0.00000 0.00000 0.00000 ; imides
123 124 125 126 3 25.47638 0.00000 -25.47638 0.00000 0.00000 0.00000 ; amides O-C(O)-N-C
123 124 125 127 3
123 124 125 128 3
129 124 125 126 3 20.50160 0.00000 -20.50160 0.00000 0.00000 0.00000 ; amides wlj 6/20/97
129 124 125 127 3
129 124 125 128 3
131 132 133 134 3 33.20422 0.00000 -33.20422 0.00000 0.00000 0.00000 ; methylguanidinium ion
131 132 133 138 3 20.50160 0.00000 -20.50160 0.00000 0.00000 0.00000 ; imides
132 133 134 135 3 25.47638 0.00000 -25.47638 0.00000 0.00000 0.00000 ; amides O-C(O)-N-C
132 133 134 136 3
132 133 134 137 3
138 133 134 135 3 20.50160 0.00000 -20.50160 0.00000 0.00000 0.00000 ; amides wlj 6/20/97
138 133 134 136 3
138 133 134 137 3
140 141 142 143 3 33.20422 0.00000 -33.20422 0.00000 0.00000 0.00000 ; methylguanidinium ion
140 141 142 147 3 20.50160 0.00000 -20.50160 0.00000 0.00000 0.00000 ; imides
141 142 143 144 3 25.47638 0.00000 -25.47638 0.00000 0.00000 0.00000 ; amides O-C(O)-N-C
141 142 143 145 3
141 142 143 146 3
147 142 143 144 3 20.50160 0.00000 -20.50160 0.00000 0.00000 0.00000 ; amides wlj 6/20/97
147 142 143 145 3
147 142 143 146 3
149 150 151 152 3 33.20422 0.00000 -33.20422 0.00000 0.00000 0.00000 ; methylguanidinium ion
149 150 151 156 3 20.50160 0.00000 -20.50160 0.00000 0.00000 0.00000 ; imides
150 151 152 153 3 25.47638 0.00000 -25.47638 0.00000 0.00000 0.00000 ; amides O-C(O)-N-C
150 151 152 154 3
150 151 152 155 3
156 151 152 153 3 20.50160 0.00000 -20.50160 0.00000 0.00000 0.00000 ; amides wlj 6/20/97
156 151 152 154 3
156 151 152 155 3
158 159 160 161 3 33.20422 0.00000 -33.20422 0.00000 0.00000 0.00000 ; methylguanidinium ion
158 159 160 165 3 20.50160 0.00000 -20.50160 0.00000 0.00000 0.00000 ; imides
159 160 161 162 3 25.47638 0.00000 -25.47638 0.00000 0.00000 0.00000 ; amides O-C(O)-N-C
159 160 161 163 3
159 160 161 164 3
165 160 161 162 3 20.50160 0.00000 -20.50160 0.00000 0.00000 0.00000 ; amides wlj 6/20/97
165 160 161 163 3
165 160 161 164 3
167 168 169 170 3 33.20422 0.00000 -33.20422 0.00000 0.00000 0.00000 ; methylguanidinium ion
167 168 169 174 3 20.50160 0.00000 -20.50160 0.00000 0.00000 0.00000 ; imides
168 169 170 171 3 25.47638 0.00000 -25.47638 0.00000 0.00000 0.00000 ; amides O-C(O)-N-C
168 169 170 172 3
168 169 170 173 3
174 169 170 171 3 20.50160 0.00000 -20.50160 0.00000 0.00000 0.00000 ; amides wlj 6/20/97
174 169 170 172 3
174 169 170 173 3
176 177 178 179 3 33.20422 0.00000 -33.20422 0.00000 0.00000 0.00000 ; methylguanidinium ion
176 177 178 183 3 20.50160 0.00000 -20.50160 0.00000 0.00000 0.00000 ; imides
177 178 179 180 3 25.47638 0.00000 -25.47638 0.00000 0.00000 0.00000 ; amides O-C(O)-N-C
177 178 179 181 3
177 178 179 182 3
183 178 179 180 3 20.50160 0.00000 -20.50160 0.00000 0.00000 0.00000 ; amides wlj 6/20/97
183 178 179 181 3
183 178 179 182 3
185 186 187 188 3 33.20422 0.00000 -33.20422 0.00000 0.00000 0.00000 ; methylguanidinium ion
185 186 187 192 3 20.50160 0.00000 -20.50160 0.00000 0.00000 0.00000 ; imides
186 187 188 189 3 25.47638 0.00000 -25.47638 0.00000 0.00000 0.00000 ; amides O-C(O)-N-C
186 187 188 190 3
186 187 188 191 3
192 187 188 189 3 20.50160 0.00000 -20.50160 0.00000 0.00000 0.00000 ; amides wlj 6/20/97
192 187 188 190 3
192 187 188 191 3
194 195 196 197 3 33.20422 0.00000 -33.20422 0.00000 0.00000 0.00000 ; methylguanidinium ion
194 195 196 201 3 20.50160 0.00000 -20.50160 0.00000 0.00000 0.00000 ; imides
195 196 197 198 3 25.47638 0.00000 -25.47638 0.00000 0.00000 0.00000 ; amides O-C(O)-N-C
195 196 197 199 3
195 196 197 200 3
201 196 197 198 3 20.50160 0.00000 -20.50160 0.00000 0.00000 0.00000 ; amides wlj 6/20/97
201 196 197 199 3
201 196 197 200 3
203 204 205 206 3 33.20422 0.00000 -33.20422 0.00000 0.00000 0.00000 ; methylguanidinium ion
203 204 205 210 3 20.50160 0.00000 -20.50160 0.00000 0.00000 0.00000 ; imides
204 205 206 207 3 25.47638 0.00000 -25.47638 0.00000 0.00000 0.00000 ; amides O-C(O)-N-C
204 205 206 208 3
204 205 206 209 3
210 205 206 207 3 20.50160 0.00000 -20.50160 0.00000 0.00000 0.00000 ; amides wlj 6/20/97
210 205 206 208 3
210 205 206 209 3
212 213 214 215 3 33.20422 0.00000 -33.20422 0.00000 0.00000 0.00000 ; methylguanidinium ion
212 213 214 220 3 20.50160 0.00000 -20.50160 0.00000 0.00000 0.00000 ; imides
213 214 215 216 3 25.47638 0.00000 -25.47638 0.00000 0.00000 0.00000 ; amides O-C(O)-N-C
213 214 215 218 3
213 214 215 219 3
214 215 216 217 3 16.73600 4.18400 -20.92000 0.00000 0.00000 0.00000 ; carbamates
218 215 216 217 3
219 215 216 217 3
220 214 215 216 3 20.50160 0.00000 -20.50160 0.00000 0.00000 0.00000 ; amides wlj 6/20/97
220 214 215 218 3
220 214 215 219 3
222 223 224 225 3 33.20422 0.00000 -33.20422 0.00000 0.00000 0.00000 ; methylguanidinium ion
222 223 224 229 3 20.50160 0.00000 -20.50160 0.00000 0.00000 0.00000 ; imides
223 224 225 226 3 25.47638 0.00000 -25.47638 0.00000 0.00000 0.00000 ; amides O-C(O)-N-C
223 224 225 227 3
223 224 225 228 3
229 224 225 226 3 20.50160 0.00000 -20.50160 0.00000 0.00000 0.00000 ; amides wlj 6/20/97
229 224 225 227 3
229 224 225 228 3
231 232 233 234 3 33.20422 0.00000 -33.20422 0.00000 0.00000 0.00000 ; methylguanidinium ion
231 232 233 238 3 20.50160 0.00000 -20.50160 0.00000 0.00000 0.00000 ; imides
232 233 234 235 3 25.47638 0.00000 -25.47638 0.00000 0.00000 0.00000 ; amides O-C(O)-N-C
232 233 234 236 3
232 233 234 237 3
238 233 234 235 3 20.50160 0.00000 -20.50160 0.00000 0.00000 0.00000 ; amides wlj 6/20/97
238 233 234 236 3
238 233 234 237 3
240 241 242 243 3 33.20422 0.00000 -33.20422 0.00000 0.00000 0.00000 ; methylguanidinium ion
240 241 242 247 3 20.50160 0.00000 -20.50160 0.00000 0.00000 0.00000 ; imides
241 242 243 244 3 25.47638 0.00000 -25.47638 0.00000 0.00000 0.00000 ; amides O-C(O)-N-C
241 242 243 245 3
241 242 243 246 3
247 242 243 244 3 20.50160 0.00000 -20.50160 0.00000 0.00000 0.00000 ; amides wlj 6/20/97
247 242 243 245 3
247 242 243 246 3
249 250 251 252 3 33.20422 0.00000 -33.20422 0.00000 0.00000 0.00000 ; methylguanidinium ion
249 250 251 257 3 20.50160 0.00000 -20.50160 0.00000 0.00000 0.00000 ; imides
250 251 252 253 3 25.47638 0.00000 -25.47638 0.00000 0.00000 0.00000 ; amides O-C(O)-N-C
250 251 252 255 3
250 251 252 256 3
251 252 253 254 3 16.73600 4.18400 -20.92000 0.00000 0.00000 0.00000 ; carbamates
255 252 253 254 3
256 252 253 254 3
257 251 252 253 3 20.50160 0.00000 -20.50160 0.00000 0.00000 0.00000 ; amides wlj 6/20/97
257 251 252 255 3
257 251 252 256 3
259 260 261 262 3 33.20422 0.00000 -33.20422 0.00000 0.00000 0.00000 ; methylguanidinium ion
259 260 261 266 3 20.50160 0.00000 -20.50160 0.00000 0.00000 0.00000 ; imides
260 261 262 263 3 25.47638 0.00000 -25.47638 0.00000 0.00000 0.00000 ; amides O-C(O)-N-C
260 261 262 264 3
260 261 262 265 3
266 261 262 263 3 20.50160 0.00000 -20.50160 0.00000 0.00000 0.00000 ; amides wlj 6/20/97
266 261 262 264 3
266 261 262 265 3
268 269 270 271 3 33.20422 0.00000 -33.20422 0.00000 0.00000 0.00000 ; methylguanidinium ion
268 269 270 275 3 20.50160 0.00000 -20.50160 0.00000 0.00000 0.00000 ; imides
269 270 271 272 3 25.47638 0.00000 -25.47638 0.00000 0.00000 0.00000 ; amides O-C(O)-N-C
269 270 271 273 3
269 270 271 274 3
275 270 271 272 3 20.50160 0.00000 -20.50160 0.00000 0.00000 0.00000 ; amides wlj 6/20/97
275 270 271 273 3
275 270 271 274 3
277 278 279 280 3 33.20422 0.00000 -33.20422 0.00000 0.00000 0.00000 ; methylguanidinium ion
277 278 279 284 3 20.50160 0.00000 -20.50160 0.00000 0.00000 0.00000 ; imides
278 279 280 281 3 25.47638 0.00000 -25.47638 0.00000 0.00000 0.00000 ; amides O-C(O)-N-C
278 279 280 282 3
278 279 280 283 3
284 279 280 281 3 20.50160 0.00000 -20.50160 0.00000 0.00000 0.00000 ; amides wlj 6/20/97
284 279 280 282 3
284 279 280 283 3
286 287 288 289 3 33.20422 0.00000 -33.20422 0.00000 0.00000 0.00000 ; methylguanidinium ion
286 287 288 293 3 20.50160 0.00000 -20.50160 0.00000 0.00000 0.00000 ; imides
287 288 289 290 3 25.47638 0.00000 -25.47638 0.00000 0.00000 0.00000 ; amides O-C(O)-N-C
287 288 289 291 3
287 288 289 292 3
293 288 289 290 3 20.50160 0.00000 -20.50160 0.00000 0.00000 0.00000 ; amides wlj 6/20/97
293 288 289 291 3
293 288 289 292 3
295 296 297 298 3 33.20422 0.00000 -33.20422 0.00000 0.00000 0.00000 ; methylguanidinium ion
295 296 297 302 3 20.50160 0.00000 -20.50160 0.00000 0.00000 0.00000 ; imides
296 297 298 299 3 25.47638 0.00000 -25.47638 0.00000 0.00000 0.00000 ; amides O-C(O)-N-C
296 297 298 300 3
296 297 298 301 3
302 297 298 299 3 20.50160 0.00000 -20.50160 0.00000 0.00000 0.00000 ; amides wlj 6/20/97
302 297 298 300 3
302 297 298 301 3
304 305 306 307 3 33.20422 0.00000 -33.20422 0.00000 0.00000 0.00000 ; methylguanidinium ion
304 305 306 311 3 20.50160 0.00000 -20.50160 0.00000 0.00000 0.00000 ; imides
305 306 307 308 3 25.47638 0.00000 -25.47638 0.00000 0.00000 0.00000 ; amides O-C(O)-N-C
305 306 307 309 3
305 306 307 310 3
311 306 307 308 3 20.50160 0.00000 -20.50160 0.00000 0.00000 0.00000 ; amides wlj 6/20/97
311 306 307 309 3
311 306 307 310 3
313 314 315 316 3 33.20422 0.00000 -33.20422 0.00000 0.00000 0.00000 ; methylguanidinium ion
313 314 315 320 3 20.50160 0.00000 -20.50160 0.00000 0.00000 0.00000 ; imides
314 315 316 317 3 25.47638 0.00000 -25.47638 0.00000 0.00000 0.00000 ; amides O-C(O)-N-C
314 315 316 318 3
314 315 316 319 3
320 315 316 317 3 20.50160 0.00000 -20.50160 0.00000 0.00000 0.00000 ; amides wlj 6/20/97
320 315 316 318 3
320 315 316 319 3
322 323 324 325 3 33.20422 0.00000 -33.20422 0.00000 0.00000 0.00000 ; methylguanidinium ion
322 323 324 329 3 20.50160 0.00000 -20.50160 0.00000 0.00000 0.00000 ; imides
323 324 325 326 3 25.47638 0.00000 -25.47638 0.00000 0.00000 0.00000 ; amides O-C(O)-N-C
323 324 325 327 3
323 324 325 328 3
329 324 325 326 3 20.50160 0.00000 -20.50160 0.00000 0.00000 0.00000 ; amides wlj 6/20/97
329 324 325 327 3
329 324 325 328 3
331 332 333 334 3 33.20422 0.00000 -33.20422 0.00000 0.00000 0.00000 ; methylguanidinium ion
331 332 333 338 3 20.50160 0.00000 -20.50160 0.00000 0.00000 0.00000 ; imides
332 333 334 335 3 25.47638 0.00000 -25.47638 0.00000 0.00000 0.00000 ; amides O-C(O)-N-C
332 333 334 336 3
332 333 334 337 3
338 333 334 335 3 20.50160 0.00000 -20.50160 0.00000 0.00000 0.00000 ; amides wlj 6/20/97
338 333 334 336 3
338 333 334 337 3
340 341 342 343 3 33.20422 0.00000 -33.20422 0.00000 0.00000 0.00000 ; methylguanidinium ion
340 341 342 348 3 20.50160 0.00000 -20.50160 0.00000 0.00000 0.00000 ; imides
341 342 343 344 3 25.47638 0.00000 -25.47638 0.00000 0.00000 0.00000 ; amides O-C(O)-N-C
341 342 343 346 3
341 342 343 347 3
342 343 344 345 3 16.73600 4.18400 -20.92000 0.00000 0.00000 0.00000 ; carbamates
346 343 344 345 3
347 343 344 345 3
348 342 343 344 3 20.50160 0.00000 -20.50160 0.00000 0.00000 0.00000 ; amides wlj 6/20/97
348 342 343 346 3
348 342 343 347 3
350 351 352 353 3 33.20422 0.00000 -33.20422 0.00000 0.00000 0.00000 ; methylguanidinium ion
350 351 352 357 3 20.50160 0.00000 -20.50160 0.00000 0.00000 0.00000 ; imides
351 352 353 354 3 25.47638 0.00000 -25.47638 0.00000 0.00000 0.00000 ; amides O-C(O)-N-C
351 352 353 355 3
351 352 353 356 3
357 352 353 354 3 20.50160 0.00000 -20.50160 0.00000 0.00000 0.00000 ; amides wlj 6/20/97
357 352 353 355 3
357 352 353 356 3
359 360 361 362 3 33.20422 0.00000 -33.20422 0.00000 0.00000 0.00000 ; methylguanidinium ion
359 360 361 366 3 20.50160 0.00000 -20.50160 0.00000 0.00000 0.00000 ; imides
360 361 362 363 3 25.47638 0.00000 -25.47638 0.00000 0.00000 0.00000 ; amides O-C(O)-N-C
360 361 362 364 3
360 361 362 365 3
366 361 362 363 3 20.50160 0.00000 -20.50160 0.00000 0.00000 0.00000 ; amides wlj 6/20/97
366 361 362 364 3
366 361 362 365 3
368 369 370 371 3 33.20422 0.00000 -33.20422 0.00000 0.00000 0.00000 ; methylguanidinium ion
368 369 370 376 3 20.50160 0.00000 -20.50160 0.00000 0.00000 0.00000 ; imides
369 370 371 372 3 25.47638 0.00000 -25.47638 0.00000 0.00000 0.00000 ; amides O-C(O)-N-C
369 370 371 374 3
369 370 371 375 3
370 371 372 373 3 16.73600 4.18400 -20.92000 0.00000 0.00000 0.00000 ; carbamates
374 371 372 373 3
375 371 372 373 3
376 370 371 372 3 20.50160 0.00000 -20.50160 0.00000 0.00000 0.00000 ; amides wlj 6/20/97
376 370 371 374 3
376 370 371 375 3
378 379 380 381 3 33.20422 0.00000 -33.20422 0.00000 0.00000 0.00000 ; methylguanidinium ion
378 379 380 385 3 20.50160 0.00000 -20.50160 0.00000 0.00000 0.00000 ; imides
379 380 381 382 3 25.47638 0.00000 -25.47638 0.00000 0.00000 0.00000 ; amides O-C(O)-N-C
379 380 381 383 3
379 380 381 384 3
385 380 381 382 3 20.50160 0.00000 -20.50160 0.00000 0.00000 0.00000 ; amides wlj 6/20/97
385 380 381 383 3
385 380 381 384 3
387 388 389 390 3 33.20422 0.00000 -33.20422 0.00000 0.00000 0.00000 ; methylguanidinium ion
387 388 389 394 3 20.50160 0.00000 -20.50160 0.00000 0.00000 0.00000 ; imides
388 389 390 391 3 25.47638 0.00000 -25.47638 0.00000 0.00000 0.00000 ; amides O-C(O)-N-C
388 389 390 392 3
388 389 390 393 3
394 389 390 391 3 20.50160 0.00000 -20.50160 0.00000 0.00000 0.00000 ; amides wlj 6/20/97
394 389 390 392 3
394 389 390 393 3
396 397 398 399 3 33.20422 0.00000 -33.20422 0.00000 0.00000 0.00000 ; methylguanidinium ion
396 397 398 404 3 20.50160 0.00000 -20.50160 0.00000 0.00000 0.00000 ; imides
397 398 399 400 3 25.47638 0.00000 -25.47638 0.00000 0.00000 0.00000 ; amides O-C(O)-N-C
397 398 399 402 3
397 398 399 403 3
398 399 400 401 3 16.73600 4.18400 -20.92000 0.00000 0.00000 0.00000 ; carbamates
402 399 400 401 3
403 399 400 401 3
404 398 399 400 3 20.50160 0.00000 -20.50160 0.00000 0.00000 0.00000 ; amides wlj 6/20/97
404 398 399 402 3
404 398 399 403 3
406 407 408 409 3 33.20422 0.00000 -33.20422 0.00000 0.00000 0.00000 ; methylguanidinium ion
406 407 408 413 3 20.50160 0.00000 -20.50160 0.00000 0.00000 0.00000 ; imides
407 408 409 410 3 25.47638 0.00000 -25.47638 0.00000 0.00000 0.00000 ; amides O-C(O)-N-C
407 408 409 411 3
407 408 409 412 3
413 408 409 410 3 20.50160 0.00000 -20.50160 0.00000 0.00000 0.00000 ; amides wlj 6/20/97
413 408 409 411 3
413 408 409 412 3
415 416 417 418 3 33.20422 0.00000 -33.20422 0.00000 0.00000 0.00000 ; methylguanidinium ion
415 416 417 422 3 20.50160 0.00000 -20.50160 0.00000 0.00000 0.00000 ; imides
416 417 418 419 3 25.47638 0.00000 -25.47638 0.00000 0.00000 0.00000 ; amides O-C(O)-N-C
416 417 418 420 3
416 417 418 421 3
422 417 418 419 3 20.50160 0.00000 -20.50160 0.00000 0.00000 0.00000 ; amides wlj 6/20/97
422 417 418 420 3
422 417 418 421 3
424 425 426 427 3 33.20422 0.00000 -33.20422 0.00000 0.00000 0.00000 ; methylguanidinium ion
424 425 426 431 3 20.50160 0.00000 -20.50160 0.00000 0.00000 0.00000 ; imides
425 426 427 428 3 25.47638 0.00000 -25.47638 0.00000 0.00000 0.00000 ; amides O-C(O)-N-C
425 426 427 429 3
425 426 427 430 3
431 426 427 428 3 20.50160 0.00000 -20.50160 0.00000 0.00000 0.00000 ; amides wlj 6/20/97
431 426 427 429 3
431 426 427 430 3
433 434 435 436 3 33.20422 0.00000 -33.20422 0.00000 0.00000 0.00000 ; methylguanidinium ion
433 434 435 440 3 20.50160 0.00000 -20.50160 0.00000 0.00000 0.00000 ; imides
434 435 436 437 3 25.47638 0.00000 -25.47638 0.00000 0.00000 0.00000 ; amides O-C(O)-N-C
434 435 436 438 3
434 435 436 439 3
440 435 436 437 3 20.50160 0.00000 -20.50160 0.00000 0.00000 0.00000 ; amides wlj 6/20/97
440 435 436 438 3
440 435 436 439 3
442 443 444 445 3 33.20422 0.00000 -33.20422 0.00000 0.00000 0.00000 ; methylguanidinium ion
442 443 444 449 3 20.50160 0.00000 -20.50160 0.00000 0.00000 0.00000 ; imides
443 444 445 446 3 25.47638 0.00000 -25.47638 0.00000 0.00000 0.00000 ; amides O-C(O)-N-C
443 444 445 447 3
443 444 445 448 3
449 444 445 446 3 20.50160 0.00000 -20.50160 0.00000 0.00000 0.00000 ; amides wlj 6/20/97
449 444 445 447 3
449 444 445 448 3
451 452 453 454 3 33.20422 0.00000 -33.20422 0.00000 0.00000 0.00000 ; methylguanidinium ion
451 452 453 458 3 20.50160 0.00000 -20.50160 0.00000 0.00000 0.00000 ; imides
452 453 454 455 3 25.47638 0.00000 -25.47638 0.00000 0.00000 0.00000 ; amides O-C(O)-N-C
452 453 454 456 3
452 453 454 457 3
458 453 454 455 3 20.50160 0.00000 -20.50160 0.00000 0.00000 0.00000 ; amides wlj 6/20/97
458 453 454 456 3
458 453 454 457 3
460 461 462 463 3 33.20422 0.00000 -33.20422 0.00000 0.00000 0.00000 ; methylguanidinium ion
460 461 462 467 3 20.50160 0.00000 -20.50160 0.00000 0.00000 0.00000 ; imides
461 462 463 464 3 25.47638 0.00000 -25.47638 0.00000 0.00000 0.00000 ; amides O-C(O)-N-C
461 462 463 465 3
461 462 463 466 3
467 462 463 464 3 20.50160 0.00000 -20.50160 0.00000 0.00000 0.00000 ; amides wlj 6/20/97
467 462 463 465 3
467 462 463 466 3
469 470 471 472 3 33.20422 0.00000 -33.20422 0.00000 0.00000 0.00000 ; methylguanidinium ion
469 470 471 476 3 20.50160 0.00000 -20.50160 0.00000 0.00000 0.00000 ; imides
470 471 472 473 3 25.47638 0.00000 -25.47638 0.00000 0.00000 0.00000 ; amides O-C(O)-N-C
470 471 472 474 3
470 471 472 475 3
476 471 472 473 3 20.50160 0.00000 -20.50160 0.00000 0.00000 0.00000 ; amides wlj 6/20/97
476 471 472 474 3
476 471 472 475 3
478 479 480 481 3 33.20422 0.00000 -33.20422 0.00000 0.00000 0.00000 ; methylguanidinium ion
478 479 480 485 3 20.50160 0.00000 -20.50160 0.00000 0.00000 0.00000 ; imides
479 480 481 482 3 25.47638 0.00000 -25.47638 0.00000 0.00000 0.00000 ; amides O-C(O)-N-C
479 480 481 483 3
479 480 481 484 3
485 480 481 482 3 20.50160 0.00000 -20.50160 0.00000 0.00000 0.00000 ; amides wlj 6/20/97
485 480 481 483 3
485 480 481 484 3
487 488 489 490 3 33.20422 0.00000 -33.20422 0.00000 0.00000 0.00000 ; methylguanidinium ion
487 488 489 494 3 20.50160 0.00000 -20.50160 0.00000 0.00000 0.00000 ; imides
488 489 490 491 3 25.47638 0.00000 -25.47638 0.00000 0.00000 0.00000 ; amides O-C(O)-N-C
488 489 490 492 3
488 489 490 493 3
494 489 490 491 3 20.50160 0.00000 -20.50160 0.00000 0.00000 0.00000 ; amides wlj 6/20/97
494 489 490 492 3
494 489 490 493 3
496 497 498 499 3 33.20422 0.00000 -33.20422 0.00000 0.00000 0.00000 ; methylguanidinium ion
496 497 498 503 3 20.50160 0.00000 -20.50160 0.00000 0.00000 0.00000 ; imides
497 498 499 500 3 25.47638 0.00000 -25.47638 0.00000 0.00000 0.00000 ; amides O-C(O)-N-C
497 498 499 501 3
497 498 499 502 3
503 498 499 500 3 20.50160 0.00000 -20.50160 0.00000 0.00000 0.00000 ; amides wlj 6/20/97
503 498 499 501 3
503 498 499 502 3
505 506 507 508 3 33.20422 0.00000 -33.20422 0.00000 0.00000 0.00000 ; methylguanidinium ion
505 506 507 512 3 20.50160 0.00000 -20.50160 0.00000 0.00000 0.00000 ; imides
506 507 508 509 3 25.47638 0.00000 -25.47638 0.00000 0.00000 0.00000 ; amides O-C(O)-N-C
506 507 508 510 3
506 507 508 511 3
512 507 508 509 3 20.50160 0.00000 -20.50160 0.00000 0.00000 0.00000 ; amides wlj 6/20/97
512 507 508 510 3
512 507 508 511 3
514 515 516 517 3 33.20422 0.00000 -33.20422 0.00000 0.00000 0.00000 ; methylguanidinium ion
514 515 516 521 3 20.50160 0.00000 -20.50160 0.00000 0.00000 0.00000 ; imides
515 516 517 518 3 25.47638 0.00000 -25.47638 0.00000 0.00000 0.00000 ; amides O-C(O)-N-C
515 516 517 519 3
515 516 517 520 3
521 516 517 518 3 20.50160 0.00000 -20.50160 0.00000 0.00000 0.00000 ; amides wlj 6/20/97
521 516 517 519 3
521 516 517 520 3
523 524 525 526 3 33.20422 0.00000 -33.20422 0.00000 0.00000 0.00000 ; methylguanidinium ion
523 524 525 529 3 20.50160 0.00000 -20.50160 0.00000 0.00000 0.00000 ; imides
524 525 526 527 3
524 525 526 528 3
529 525 526 527 3
529 525 526 528 3
531 532 533 534 3 33.20422 0.00000 -33.20422 0.00000 0.00000 0.00000 ; methylguanidinium ion
531 532 533 538 3 20.50160 0.00000 -20.50160 0.00000 0.00000 0.00000 ; imides
532 533 534 535 3 25.47638 0.00000 -25.47638 0.00000 0.00000 0.00000 ; amides O-C(O)-N-C
532 533 534 536 3
532 533 534 537 3
538 533 534 535 3 20.50160 0.00000 -20.50160 0.00000 0.00000 0.00000 ; amides wlj 6/20/97
538 533 534 536 3
538 533 534 537 3
540 541 542 543 3 33.20422 0.00000 -33.20422 0.00000 0.00000 0.00000 ; methylguanidinium ion
540 541 542 547 3 20.50160 0.00000 -20.50160 0.00000 0.00000 0.00000 ; imides
541 542 543 544 3 25.47638 0.00000 -25.47638 0.00000 0.00000 0.00000 ; amides O-C(O)-N-C
541 542 543 545 3
541 542 543 546 3
547 542 543 544 3 20.50160 0.00000 -20.50160 0.00000 0.00000 0.00000 ; amides wlj 6/20/97
547 542 543 545 3
547 542 543 546 3
549 550 551 552 3 33.20422 0.00000 -33.20422 0.00000 0.00000 0.00000 ; methylguanidinium ion
549 550 551 556 3 20.50160 0.00000 -20.50160 0.00000 0.00000 0.00000 ; imides
550 551 552 553 3 25.47638 0.00000 -25.47638 0.00000 0.00000 0.00000 ; amides O-C(O)-N-C
550 551 552 554 3
550 551 552 555 3
556 551 552 553 3 20.50160 0.00000 -20.50160 0.00000 0.00000 0.00000 ; amides wlj 6/20/97
556 551 552 554 3
556 551 552 555 3
558 559 560 561 3 33.20422 0.00000 -33.20422 0.00000 0.00000 0.00000 ; methylguanidinium ion
558 559 560 566 3 20.50160 0.00000 -20.50160 0.00000 0.00000 0.00000 ; imides
559 560 561 562 3 25.47638 0.00000 -25.47638 0.00000 0.00000 0.00000 ; amides O-C(O)-N-C
559 560 561 564 3
559 560 561 565 3
560 561 562 563 3 16.73600 4.18400 -20.92000 0.00000 0.00000 0.00000 ; carbamates
564 561 562 563 3
565 561 562 563 3
566 560 561 562 3 20.50160 0.00000 -20.50160 0.00000 0.00000 0.00000 ; amides wlj 6/20/97
566 560 561 564 3
566 560 561 565 3
568 569 570 571 3 33.20422 0.00000 -33.20422 0.00000 0.00000 0.00000 ; methylguanidinium ion
568 569 570 575 3 20.50160 0.00000 -20.50160 0.00000 0.00000 0.00000 ; imides
569 570 571 572 3 25.47638 0.00000 -25.47638 0.00000 0.00000 0.00000 ; amides O-C(O)-N-C
569 570 571 573 3
569 570 571 574 3
575 570 571 572 3 20.50160 0.00000 -20.50160 0.00000 0.00000 0.00000 ; amides wlj 6/20/97
575 570 571 573 3
575 570 571 574 3
577 578 579 580 3 33.20422 0.00000 -33.20422 0.00000 0.00000 0.00000 ; methylguanidinium ion
577 578 579 584 3 20.50160 0.00000 -20.50160 0.00000 0.00000 0.00000 ; imides
578 579 580 581 3 25.47638 0.00000 -25.47638 0.00000 0.00000 0.00000 ; amides O-C(O)-N-C
578 579 580 582 3
578 579 580 583 3
584 579 580 581 3 20.50160 0.00000 -20.50160 0.00000 0.00000 0.00000 ; amides wlj 6/20/97
584 579 580 582 3
584 579 580 583 3
586 587 588 589 3 33.20422 0.00000 -33.20422 0.00000 0.00000 0.00000 ; methylguanidinium ion
586 587 588 593 3 20.50160 0.00000 -20.50160 0.00000 0.00000 0.00000 ; imides
587 588 589 590 3 25.47638 0.00000 -25.47638 0.00000 0.00000 0.00000 ; amides O-C(O)-N-C
587 588 589 591 3
587 588 589 592 3
593 588 589 590 3 20.50160 0.00000 -20.50160 0.00000 0.00000 0.00000 ; amides wlj 6/20/97
593 588 589 591 3
593 588 589 592 3
595 596 597 598 3 33.20422 0.00000 -33.20422 0.00000 0.00000 0.00000 ; methylguanidinium ion
595 596 597 602 3 20.50160 0.00000 -20.50160 0.00000 0.00000 0.00000 ; imides
596 597 598 599 3 25.47638 0.00000 -25.47638 0.00000 0.00000 0.00000 ; amides O-C(O)-N-C
596 597 598 600 3
596 597 598 601 3
602 597 598 599 3 20.50160 0.00000 -20.50160 0.00000 0.00000 0.00000 ; amides wlj 6/20/97
602 597 598 600 3
602 597 598 601 3
604 605 606 607 3 33.20422 0.00000 -33.20422 0.00000 0.00000 0.00000 ; methylguanidinium ion
604 605 606 611 3 20.50160 0.00000 -20.50160 0.00000 0.00000 0.00000 ; imides
605 606 607 608 3 25.47638 0.00000 -25.47638 0.00000 0.00000 0.00000 ; amides O-C(O)-N-C
605 606 607 609 3
605 606 607 610 3
611 606 607 608 3 20.50160 0.00000 -20.50160 0.00000 0.00000 0.00000 ; amides wlj 6/20/97
611 606 607 609 3
611 606 607 610 3
613 614 615 616 3 33.20422 0.00000 -33.20422 0.00000 0.00000 0.00000 ; methylguanidinium ion
613 614 615 621 3 20.50160 0.00000 -20.50160 0.00000 0.00000 0.00000 ; imides
614 615 616 617 3 25.47638 0.00000 -25.47638 0.00000 0.00000 0.00000 ; amides O-C(O)-N-C
614 615 616 619 3
614 615 616 620 3
615 616 617 618 3 16.73600 4.18400 -20.92000 0.00000 0.00000 0.00000 ; carbamates
619 616 617 618 3
620 616 617 618 3
621 615 616 617 3 20.50160 0.00000 -20.50160 0.00000 0.00000 0.00000 ; amides wlj 6/20/97
621 615 616 619 3
621 615 616 620 3
623 624 625 626 3 33.20422 0.00000 -33.20422 0.00000 0.00000 0.00000 ; methylguanidinium ion
623 624 625 630 3 20.50160 0.00000 -20.50160 0.00000 0.00000 0.00000 ; imides
624 625 626 627 3 25.47638 0.00000 -25.47638 0.00000 0.00000 0.00000 ; amides O-C(O)-N-C
624 625 626 628 3
624 625 626 629 3
630 625 626 627 3 20.50160 0.00000 -20.50160 0.00000 0.00000 0.00000 ; amides wlj 6/20/97
630 625 626 628 3
630 625 626 629 3
632 633 634 635 3 33.20422 0.00000 -33.20422 0.00000 0.00000 0.00000 ; methylguanidinium ion
632 633 634 639 3 20.50160 0.00000 -20.50160 0.00000 0.00000 0.00000 ; imides
633 634 635 636 3 25.47638 0.00000 -25.47638 0.00000 0.00000 0.00000 ; amides O-C(O)-N-C
633 634 635 637 3
633 634 635 638 3
639 634 635 636 3 20.50160 0.00000 -20.50160 0.00000 0.00000 0.00000 ; amides wlj 6/20/97
639 634 635 637 3
639 634 635 638 3
641 642 643 644 3 33.20422 0.00000 -33.20422 0.00000 0.00000 0.00000 ; methylguanidinium ion
641 642 643 648 3 20.50160 0.00000 -20.50160 0.00000 0.00000 0.00000 ; imides
642 643 644 645 3 25.47638 0.00000 -25.47638 0.00000 0.00000 0.00000 ; amides O-C(O)-N-C
642 643 644 646 3
642 643 644 647 3
648 643 644 645 3 20.50160 0.00000 -20.50160 0.00000 0.00000 0.00000 ; amides wlj 6/20/97
648 643 644 646 3
648 643 644 647 3
650 651 652 653 3 33.20422 0.00000 -33.20422 0.00000 0.00000 0.00000 ; methylguanidinium ion
650 651 652 657 3 20.50160 0.00000 -20.50160 0.00000 0.00000 0.00000 ; imides
651 652 653 654 3 25.47638 0.00000 -25.47638 0.00000 0.00000 0.00000 ; amides O-C(O)-N-C
651 652 653 655 3
651 652 653 656 3
657 652 653 654 3 20.50160 0.00000 -20.50160 0.00000 0.00000 0.00000 ; amides wlj 6/20/97
657 652 653 655 3
657 652 653 656 3
659 660 661 662 3 33.20422 0.00000 -33.20422 0.00000 0.00000 0.00000 ; methylguanidinium ion
659 660 661 666 3 20.50160 0.00000 -20.50160 0.00000 0.00000 0.00000 ; imides
660 661 662 663 3 25.47638 0.00000 -25.47638 0.00000 0.00000 0.00000 ; amides O-C(O)-N-C
660 661 662 664 3
660 661 662 665 3
666 661 662 663 3 20.50160 0.00000 -20.50160 0.00000 0.00000 0.00000 ; amides wlj 6/20/97
666 661 662 664 3
666 661 662 665 3
668 669 670 671 3 33.20422 0.00000 -33.20422 0.00000 0.00000 0.00000 ; methylguanidinium ion
668 669 670 675 3 20.50160 0.00000 -20.50160 0.00000 0.00000 0.00000 ; imides
669 670 671 672 3 25.47638 0.00000 -25.47638 0.00000 0.00000 0.00000 ; amides O-C(O)-N-C
669 670 671 673 3
669 670 671 674 3
675 670 671 672 3 20.50160 0.00000 -20.50160 0.00000 0.00000 0.00000 ; amides wlj 6/20/97
675 670 671 673 3
675 670 671 674 3
677 678 679 680 3 33.20422 0.00000 -33.20422 0.00000 0.00000 0.00000 ; methylguanidinium ion
677 678 679 684 3 20.50160 0.00000 -20.50160 0.00000 0.00000 0.00000 ; imides
678 679 680 681 3 25.47638 0.00000 -25.47638 0.00000 0.00000 0.00000 ; amides O-C(O)-N-C
678 679 680 682 3
678 679 680 683 3
684 679 680 681 3 20.50160 0.00000 -20.50160 0.00000 0.00000 0.00000 ; amides wlj 6/20/97
684 679 680 682 3
684 679 680 683 3
686 687 688 689 3 33.20422 0.00000 -33.20422 0.00000 0.00000 0.00000 ; methylguanidinium ion
686 687 688 694 3 20.50160 0.00000 -20.50160 0.00000 0.00000 0.00000 ; imides
687 688 689 690 3 25.47638 0.00000 -25.47638 0.00000 0.00000 0.00000 ; amides O-C(O)-N-C
687 688 689 692 3
687 688 689 693 3
688 689 690 691 3 16.73600 4.18400 -20.92000 0.00000 0.00000 0.00000 ; carbamates
692 689 690 691 3
693 689 690 691 3
694 688 689 690 3 20.50160 0.00000 -20.50160 0.00000 0.00000 0.00000 ; amides wlj 6/20/97
694 688 689 692 3
694 688 689 693 3
696 697 698 699 3 33.20422 0.00000 -33.20422 0.00000 0.00000 0.00000 ; methylguanidinium ion
696 697 698 703 3 20.50160 0.00000 -20.50160 0.00000 0.00000 0.00000 ; imides
697 698 699 700 3 25.47638 0.00000 -25.47638 0.00000 0.00000 0.00000 ; amides O-C(O)-N-C
697 698 699 701 3
697 698 699 702 3
703 698 699 700 3 20.50160 0.00000 -20.50160 0.00000 0.00000 0.00000 ; amides wlj 6/20/97
703 698 699 701 3
703 698 699 702 3
705 706 707 708 3 33.20422 0.00000 -33.20422 0.00000 0.00000 0.00000 ; methylguanidinium ion
705 706 707 712 3 20.50160 0.00000 -20.50160 0.00000 0.00000 0.00000 ; imides
706 707 708 709 3 25.47638 0.00000 -25.47638 0.00000 0.00000 0.00000 ; amides O-C(O)-N-C
706 707 708 710 3
706 707 708 711 3
712 707 708 709 3 20.50160 0.00000 -20.50160 0.00000 0.00000 0.00000 ; amides wlj 6/20/97
712 707 708 710 3
712 707 708 711 3
714 715 716 717 3 33.20422 0.00000 -33.20422 0.00000 0.00000 0.00000 ; methylguanidinium ion
714 715 716 721 3 20.50160 0.00000 -20.50160 0.00000 0.00000 0.00000 ; imides
715 716 717 718 3 25.47638 0.00000 -25.47638 0.00000 0.00000 0.00000 ; amides O-C(O)-N-C
715 716 717 719 3
715 716 717 720 3
721 716 717 718 3 20.50160 0.00000 -20.50160 0.00000 0.00000 0.00000 ; amides wlj 6/20/97
721 716 717 719 3
721 716 717 720 3
723 724 725 726 3 33.20422 0.00000 -33.20422 0.00000 0.00000 0.00000 ; methylguanidinium ion
723 724 725 729 3 20.50160 0.00000 -20.50160 0.00000 0.00000 0.00000 ; imides
724 725 726 727 3
724 725 726 728 3
729 725 726 727 3
729 725 726 728 3
731 732 733 734 3 33.20422 0.00000 -33.20422 0.00000 0.00000 0.00000 ; methylguanidinium ion
731 732 733 738 3 20.50160 0.00000 -20.50160 0.00000 0.00000 0.00000 ; imides
732 733 734 735 3 25.47638 0.00000 -25.47638 0.00000 0.00000 0.00000 ; amides O-C(O)-N-C
732 733 734 736 3
732 733 734 737 3
738 733 734 735 3 20.50160 0.00000 -20.50160 0.00000 0.00000 0.00000 ; amides wlj 6/20/97
738 733 734 736 3
738 733 734 737 3
740 741 742 743 3 33.20422 0.00000 -33.20422 0.00000 0.00000 0.00000 ; methylguanidinium ion
740 741 742 747 3 20.50160 0.00000 -20.50160 0.00000 0.00000 0.00000 ; imides
741 742 743 744 3 25.47638 0.00000 -25.47638 0.00000 0.00000 0.00000 ; amides O-C(O)-N-C
741 742 743 745 3
741 742 743 746 3
747 742 743 744 3 20.50160 0.00000 -20.50160 0.00000 0.00000 0.00000 ; amides wlj 6/20/97
747 742 743 745 3
747 742 743 746 3
749 750 751 752 3 33.20422 0.00000 -33.20422 0.00000 0.00000 0.00000 ; methylguanidinium ion
749 750 751 757 3 20.50160 0.00000 -20.50160 0.00000 0.00000 0.00000 ; imides
750 751 752 753 3 25.47638 0.00000 -25.47638 0.00000 0.00000 0.00000 ; amides O-C(O)-N-C
750 751 752 755 3
750 751 752 756 3
751 752 753 754 3 16.73600 4.18400 -20.92000 0.00000 0.00000 0.00000 ; carbamates
755 752 753 754 3
756 752 753 754 3
757 751 752 753 3 20.50160 0.00000 -20.50160 0.00000 0.00000 0.00000 ; amides wlj 6/20/97
757 751 752 755 3
757 751 752 756 3
759 760 761 762 3 33.20422 0.00000 -33.20422 0.00000 0.00000 0.00000 ; methylguanidinium ion
759 760 761 767 3 20.50160 0.00000 -20.50160 0.00000 0.00000 0.00000 ; imides
760 761 762 763 3 25.47638 0.00000 -25.47638 0.00000 0.00000 0.00000 ; amides O-C(O)-N-C
760 761 762 765 3
760 761 762 766 3
761 762 763 764 3 16.73600 4.18400 -20.92000 0.00000 0.00000 0.00000 ; carbamates
765 762 763 764 3
766 762 763 764 3
767 761 762 763 3 20.50160 0.00000 -20.50160 0.00000 0.00000 0.00000 ; amides wlj 6/20/97
767 761 762 765 3
767 761 762 766 3
769 770 771 772 3 33.20422 0.00000 -33.20422 0.00000 0.00000 0.00000 ; methylguanidinium ion
769 770 771 776 3 20.50160 0.00000 -20.50160 0.00000 0.00000 0.00000 ; imides
770 771 772 773 3 25.47638 0.00000 -25.47638 0.00000 0.00000 0.00000 ; amides O-C(O)-N-C
770 771 772 774 3
770 771 772 775 3
776 771 772 773 3 20.50160 0.00000 -20.50160 0.00000 0.00000 0.00000 ; amides wlj 6/20/97
776 771 772 774 3
776 771 772 775 3
778 779 780 781 3 33.20422 0.00000 -33.20422 0.00000 0.00000 0.00000 ; methylguanidinium ion
778 779 780 785 3 20.50160 0.00000 -20.50160 0.00000 0.00000 0.00000 ; imides
779 780 781 782 3 25.47638 0.00000 -25.47638 0.00000 0.00000 0.00000 ; amides O-C(O)-N-C
779 780 781 783 3
779 780 781 784 3
785 780 781 782 3 20.50160 0.00000 -20.50160 0.00000 0.00000 0.00000 ; amides wlj 6/20/97
785 780 781 783 3
785 780 781 784 3
787 788 789 790 3 33.20422 0.00000 -33.20422 0.00000 0.00000 0.00000 ; methylguanidinium ion
787 788 789 794 3 20.50160 0.00000 -20.50160 0.00000 0.00000 0.00000 ; imides
788 789 790 791 3 25.47638 0.00000 -25.47638 0.00000 0.00000 0.00000 ; amides O-C(O)-N-C
788 789 790 792 3
788 789 790 793 3
794 789 790 791 3 20.50160 0.00000 -20.50160 0.00000 0.00000 0.00000 ; amides wlj 6/20/97
794 789 790 792 3
794 789 790 793 3
796 797 798 799 3 33.20422 0.00000 -33.20422 0.00000 0.00000 0.00000 ; methylguanidinium ion
796 797 798 802 3 20.50160 0.00000 -20.50160 0.00000 0.00000 0.00000 ; imides
797 798 799 800 3
797 798 799 801 3
802 798 799 800 3
802 798 799 801 3
804 805 806 807 3 33.20422 0.00000 -33.20422 0.00000 0.00000 0.00000 ; methylguanidinium ion
804 805 806 811 3 20.50160 0.00000 -20.50160 0.00000 0.00000 0.00000 ; imides
805 806 807 808 3 25.47638 0.00000 -25.47638 0.00000 0.00000 0.00000 ; amides O-C(O)-N-C
805 806 807 809 3
805 806 807 810 3
811 806 807 808 3 20.50160 0.00000 -20.50160 0.00000 0.00000 0.00000 ; amides wlj 6/20/97
811 806 807 809 3
811 806 807 810 3
813 814 815 816 3 33.20422 0.00000 -33.20422 0.00000 0.00000 0.00000 ; methylguanidinium ion
813 814 815 820 3 20.50160 0.00000 -20.50160 0.00000 0.00000 0.00000 ; imides
814 815 816 817 3 25.47638 0.00000 -25.47638 0.00000 0.00000 0.00000 ; amides O-C(O)-N-C
814 815 816 818 3
814 815 816 819 3
820 815 816 817 3 20.50160 0.00000 -20.50160 0.00000 0.00000 0.00000 ; amides wlj 6/20/97
820 815 816 818 3
820 815 816 819 3
822 823 824 825 3 33.20422 0.00000 -33.20422 0.00000 0.00000 0.00000 ; methylguanidinium ion
822 823 824 829 3 20.50160 0.00000 -20.50160 0.00000 0.00000 0.00000 ; imides
823 824 825 826 3 25.47638 0.00000 -25.47638 0.00000 0.00000 0.00000 ; amides O-C(O)-N-C
823 824 825 827 3
823 824 825 828 3
829 824 825 826 3 20.50160 0.00000 -20.50160 0.00000 0.00000 0.00000 ; amides wlj 6/20/97
829 824 825 827 3
829 824 825 828 3
831 832 833 834 3 33.20422 0.00000 -33.20422 0.00000 0.00000 0.00000 ; methylguanidinium ion
831 832 833 838 3 20.50160 0.00000 -20.50160 0.00000 0.00000 0.00000 ; imides
832 833 834 835 3 25.47638 0.00000 -25.47638 0.00000 0.00000 0.00000 ; amides O-C(O)-N-C
832 833 834 836 3
832 833 834 837 3
838 833 834 835 3 20.50160 0.00000 -20.50160 0.00000 0.00000 0.00000 ; amides wlj 6/20/97
838 833 834 836 3
838 833 834 837 3
840 841 842 843 3 33.20422 0.00000 -33.20422 0.00000 0.00000 0.00000 ; methylguanidinium ion
840 841 842 847 3 20.50160 0.00000 -20.50160 0.00000 0.00000 0.00000 ; imides
841 842 843 844 3 25.47638 0.00000 -25.47638 0.00000 0.00000 0.00000 ; amides O-C(O)-N-C
841 842 843 845 3
841 842 843 846 3
847 842 843 844 3 20.50160 0.00000 -20.50160 0.00000 0.00000 0.00000 ; amides wlj 6/20/97
847 842 843 845 3
847 842 843 846 3
849 850 851 852 3 33.20422 0.00000 -33.20422 0.00000 0.00000 0.00000 ; methylguanidinium ion
849 850 851 856 3 20.50160 0.00000 -20.50160 0.00000 0.00000 0.00000 ; imides
850 851 852 853 3 25.47638 0.00000 -25.47638 0.00000 0.00000 0.00000 ; amides O-C(O)-N-C
850 851 852 854 3
850 851 852 855 3
856 851 852 853 3 20.50160 0.00000 -20.50160 0.00000 0.00000 0.00000 ; amides wlj 6/20/97
856 851 852 854 3
856 851 852 855 3
858 859 860 861 3 33.20422 0.00000 -33.20422 0.00000 0.00000 0.00000 ; methylguanidinium ion
858 859 860 865 3 20.50160 0.00000 -20.50160 0.00000 0.00000 0.00000 ; imides
859 860 861 862 3 25.47638 0.00000 -25.47638 0.00000 0.00000 0.00000 ; amides O-C(O)-N-C
859 860 861 863 3
859 860 861 864 3
865 860 861 862 3 20.50160 0.00000 -20.50160 0.00000 0.00000 0.00000 ; amides wlj 6/20/97
865 860 861 863 3
865 860 861 864 3
867 868 869 870 3 33.20422 0.00000 -33.20422 0.00000 0.00000 0.00000 ; methylguanidinium ion
867 868 869 874 3 20.50160 0.00000 -20.50160 0.00000 0.00000 0.00000 ; imides
868 869 870 871 3 25.47638 0.00000 -25.47638 0.00000 0.00000 0.00000 ; amides O-C(O)-N-C
868 869 870 872 3
868 869 870 873 3
874 869 870 871 3 20.50160 0.00000 -20.50160 0.00000 0.00000 0.00000 ; amides wlj 6/20/97
874 869 870 872 3
874 869 870 873 3
876 877 878 879 3 33.20422 0.00000 -33.20422 0.00000 0.00000 0.00000 ; methylguanidinium ion
876 877 878 882 3 20.50160 0.00000 -20.50160 0.00000 0.00000 0.00000 ; imides
877 878 879 880 3
877 878 879 881 3
882 878 879 880 3
882 878 879 881 3
884 885 886 887 3 33.20422 0.00000 -33.20422 0.00000 0.00000 0.00000 ; methylguanidinium ion
884 885 886 891 3 20.50160 0.00000 -20.50160 0.00000 0.00000 0.00000 ; imides
885 886 887 888 3 25.47638 0.00000 -25.47638 0.00000 0.00000 0.00000 ; amides O-C(O)-N-C
885 886 887 889 3
885 886 887 890 3
891 886 887 888 3 20.50160 0.00000 -20.50160 0.00000 0.00000 0.00000 ; amides wlj 6/20/97
891 886 887 889 3
891 886 887 890 3
893 894 895 896 3 33.20422 0.00000 -33.20422 0.00000 0.00000 0.00000 ; methylguanidinium ion
893 894 895 901 3 20.50160 0.00000 -20.50160 0.00000 0.00000 0.00000 ; imides
894 895 896 897 3 25.47638 0.00000 -25.47638 0.00000 0.00000 0.00000 ; amides O-C(O)-N-C
894 895 896 899 3
894 895 896 900 3
895 896 897 898 3 16.73600 4.18400 -20.92000 0.00000 0.00000 0.00000 ; carbamates
899 896 897 898 3
900 896 897 898 3
901 895 896 897 3 20.50160 0.00000 -20.50160 0.00000 0.00000 0.00000 ; amides wlj 6/20/97
901 895 896 899 3
901 895 896 900 3
903 904 905 906 3 33.20422 0.00000 -33.20422 0.00000 0.00000 0.00000 ; methylguanidinium ion
903 904 905 910 3 20.50160 0.00000 -20.50160 0.00000 0.00000 0.00000 ; imides
904 905 906 907 3 25.47638 0.00000 -25.47638 0.00000 0.00000 0.00000 ; amides O-C(O)-N-C
904 905 906 908 3
904 905 906 909 3
910 905 906 907 3 20.50160 0.00000 -20.50160 0.00000 0.00000 0.00000 ; amides wlj 6/20/97
910 905 906 908 3
910 905 906 909 3
912 913 914 915 3 33.20422 0.00000 -33.20422 0.00000 0.00000 0.00000 ; methylguanidinium ion
912 913 914 919 3 20.50160 0.00000 -20.50160 0.00000 0.00000 0.00000 ; imides
913 914 915 916 3 25.47638 0.00000 -25.47638 0.00000 0.00000 0.00000 ; amides O-C(O)-N-C
913 914 915 917 3
913 914 915 918 3
919 914 915 916 3 20.50160 0.00000 -20.50160 0.00000 0.00000 0.00000 ; amides wlj 6/20/97
919 914 915 917 3
919 914 915 918 3
921 922 923 924 3 33.20422 0.00000 -33.20422 0.00000 0.00000 0.00000 ; methylguanidinium ion
921 922 923 928 3 20.50160 0.00000 -20.50160 0.00000 0.00000 0.00000 ; imides
922 923 924 925 3 25.47638 0.00000 -25.47638 0.00000 0.00000 0.00000 ; amides O-C(O)-N-C
922 923 924 926 3
922 923 924 927 3
928 923 924 925 3 20.50160 0.00000 -20.50160 0.00000 0.00000 0.00000 ; amides wlj 6/20/97
928 923 924 926 3
928 923 924 927 3
930 931 932 933 3 33.20422 0.00000 -33.20422 0.00000 0.00000 0.00000 ; methylguanidinium ion
930 931 932 937 3 20.50160 0.00000 -20.50160 0.00000 0.00000 0.00000 ; imides
931 932 933 934 3 25.47638 0.00000 -25.47638 0.00000 0.00000 0.00000 ; amides O-C(O)-N-C
931 932 933 935 3
931 932 933 936 3
937 932 933 934 3 20.50160 0.00000 -20.50160 0.00000 0.00000 0.00000 ; amides wlj 6/20/97
937 932 933 935 3
937 932 933 936 3
939 940 941 942 3 33.20422 0.00000 -33.20422 0.00000 0.00000 0.00000 ; methylguanidinium ion
939 940 941 946 3 20.50160 0.00000 -20.50160 0.00000 0.00000 0.00000 ; imides
940 941 942 943 3 25.47638 0.00000 -25.47638 0.00000 0.00000 0.00000 ; amides O-C(O)-N-C
940 941 942 944 3
940 941 942 945 3
946 941 942 943 3 20.50160 0.00000 -20.50160 0.00000 0.00000 0.00000 ; amides wlj 6/20/97
946 941 942 944 3
946 941 942 945 3
948 949 950 951 3 33.20422 0.00000 -33.20422 0.00000 0.00000 0.00000 ; methylguanidinium ion
948 949 950 955 3 20.50160 0.00000 -20.50160 0.00000 0.00000 0.00000 ; imides
949 950 951 952 3 25.47638 0.00000 -25.47638 0.00000 0.00000 0.00000 ; amides O-C(O)-N-C
949 950 951 953 3
949 950 951 954 3
955 950 951 952 3 20.50160 0.00000 -20.50160 0.00000 0.00000 0.00000 ; amides wlj 6/20/97
955 950 951 953 3
955 950 951 954 3
957 958 959 960 3 33.20422 0.00000 -33.20422 0.00000 0.00000 0.00000 ; methylguanidinium ion
957 958 959 964 3 20.50160 0.00000 -20.50160 0.00000 0.00000 0.00000 ; imides
958 959 960 961 3 25.47638 0.00000 -25.47638 0.00000 0.00000 0.00000 ; amides O-C(O)-N-C
958 959 960 962 3
958 959 960 963 3
964 959 960 961 3 20.50160 0.00000 -20.50160 0.00000 0.00000 0.00000 ; amides wlj 6/20/97
964 959 960 962 3
964 959 960 963 3
966 967 968 969 3 33.20422 0.00000 -33.20422 0.00000 0.00000 0.00000 ; methylguanidinium ion
966 967 968 974 3 20.50160 0.00000 -20.50160 0.00000 0.00000 0.00000 ; imides
967 968 969 970 3 25.47638 0.00000 -25.47638 0.00000 0.00000 0.00000 ; amides O-C(O)-N-C
967 968 969 972 3
967 968 969 973 3
968 969 970 971 3 16.73600 4.18400 -20.92000 0.00000 0.00000 0.00000 ; carbamates
972 969 970 971 3
973 969 970 971 3
974 968 969 970 3 20.50160 0.00000 -20.50160 0.00000 0.00000 0.00000 ; amides wlj 6/20/97
974 968 969 972 3
974 968 969 973 3
976 977 978 979 3 33.20422 0.00000 -33.20422 0.00000 0.00000 0.00000 ; methylguanidinium ion
976 977 978 984 3 20.50160 0.00000 -20.50160 0.00000 0.00000 0.00000 ; imides
977 978 979 980 3 25.47638 0.00000 -25.47638 0.00000 0.00000 0.00000 ; amides O-C(O)-N-C
977 978 979 982 3
977 978 979 983 3
978 979 980 981 3 16.73600 4.18400 -20.92000 0.00000 0.00000 0.00000 ; carbamates
982 979 980 981 3
983 979 980 981 3
984 978 979 980 3 20.50160 0.00000 -20.50160 0.00000 0.00000 0.00000 ; amides wlj 6/20/97
984 978 979 982 3
984 978 979 983 3
986 987 988 989 3 33.20422 0.00000 -33.20422 0.00000 0.00000 0.00000 ; methylguanidinium ion
986 987 988 994 3 20.50160 0.00000 -20.50160 0.00000 0.00000 0.00000 ; imides
987 988 989 990 3 25.47638 0.00000 -25.47638 0.00000 0.00000 0.00000 ; amides O-C(O)-N-C
987 988 989 992 3
987 988 989 993 3
988 989 990 991 3 16.73600 4.18400 -20.92000 0.00000 0.00000 0.00000 ; carbamates
992 989 990 991 3
993 989 990 991 3
994 988 989 990 3 20.50160 0.00000 -20.50160 0.00000 0.00000 0.00000 ; amides wlj 6/20/97
994 988 989 992 3
994 988 989 993 3
996 997 998 999 3 33.20422 0.00000 -33.20422 0.00000 0.00000 0.00000 ; methylguanidinium ion
996 997 998 1003 3 20.50160 0.00000 -20.50160 0.00000 0.00000 0.00000 ; imides
997 998 999 1000 3 25.47638 0.00000 -25.47638 0.00000 0.00000 0.00000 ; amides O-C(O)-N-C
997 998 999 1001 3
997 998 999 1002 3
1003 998 999 1000 3 20.50160 0.00000 -20.50160 0.00000 0.00000 0.00000 ; amides wlj 6/20/97
1003 998 999 1001 3
1003 998 999 1002 3
1005 1006 1007 1008 3 33.20422 0.00000 -33.20422 0.00000 0.00000 0.00000 ; methylguanidinium ion
1005 1006 1007 1012 3 20.50160 0.00000 -20.50160 0.00000 0.00000 0.00000 ; imides
1006 1007 1008 1009 3 25.47638 0.00000 -25.47638 0.00000 0.00000 0.00000 ; amides O-C(O)-N-C
1006 1007 1008 1010 3
1006 1007 1008 1011 3
1012 1007 1008 1009 3 20.50160 0.00000 -20.50160 0.00000 0.00000 0.00000 ; amides wlj 6/20/97
1012 1007 1008 1010 3
1012 1007 1008 1011 3
1014 1015 1016 1017 3 33.20422 0.00000 -33.20422 0.00000 0.00000 0.00000 ; methylguanidinium ion
1014 1015 1016 1021 3 20.50160 0.00000 -20.50160 0.00000 0.00000 0.00000 ; imides
1015 1016 1017 1018 3 25.47638 0.00000 -25.47638 0.00000 0.00000 0.00000 ; amides O-C(O)-N-C
1015 1016 1017 1019 3
1015 1016 1017 1020 3
1021 1016 1017 1018 3 20.50160 0.00000 -20.50160 0.00000 0.00000 0.00000 ; amides wlj 6/20/97
1021 1016 1017 1019 3
1021 1016 1017 1020 3
1023 1024 1025 1026 3 33.20422 0.00000 -33.20422 0.00000 0.00000 0.00000 ; methylguanidinium ion
1023 1024 1025 1030 3 20.50160 0.00000 -20.50160 0.00000 0.00000 0.00000 ; imides
1024 1025 1026 1027 3 25.47638 0.00000 -25.47638 0.00000 0.00000 0.00000 ; amides O-C(O)-N-C
1024 1025 1026 1028 3
1024 1025 1026 1029 3
1030 1025 1026 1027 3 20.50160 0.00000 -20.50160 0.00000 0.00000 0.00000 ; amides wlj 6/20/97
1030 1025 1026 1028 3
1030 1025 1026 1029 3
1032 1033 1034 1035 3 33.20422 0.00000 -33.20422 0.00000 0.00000 0.00000 ; methylguanidinium ion
1032 1033 1034 1039 3 20.50160 0.00000 -20.50160 0.00000 0.00000 0.00000 ; imides
1033 1034 1035 1036 3 25.47638 0.00000 -25.47638 0.00000 0.00000 0.00000 ; amides O-C(O)-N-C
1033 1034 1035 1037 3
1033 1034 1035 1038 3
1039 1034 1035 1036 3 20.50160 0.00000 -20.50160 0.00000 0.00000 0.00000 ; amides wlj 6/20/97
1039 1034 1035 1037 3
1039 1034 1035 1038 3
1041 1042 1043 1044 3 33.20422 0.00000 -33.20422 0.00000 0.00000 0.00000 ; methylguanidinium ion
1041 1042 1043 1048 3 20.50160 0.00000 -20.50160 0.00000 0.00000 0.00000 ; imides
1042 1043 1044 1045 3 25.47638 0.00000 -25.47638 0.00000 0.00000 0.00000 ; amides O-C(O)-N-C
1042 1043 1044 1046 3
1042 1043 1044 1047 3
1048 1043 1044 1045 3 20.50160 0.00000 -20.50160 0.00000 0.00000 0.00000 ; amides wlj 6/20/97
1048 1043 1044 1046 3
1048 1043 1044 1047 3
1050 1051 1052 1053 3 33.20422 0.00000 -33.20422 0.00000 0.00000 0.00000 ; methylguanidinium ion
1050 1051 1052 1057 3 20.50160 0.00000 -20.50160 0.00000 0.00000 0.00000 ; imides
1051 1052 1053 1054 3 25.47638 0.00000 -25.47638 0.00000 0.00000 0.00000 ; amides O-C(O)-N-C
1051 1052 1053 1055 3
1051 1052 1053 1056 3
1057 1052 1053 1054 3 20.50160 0.00000 -20.50160 0.00000 0.00000 0.00000 ; amides wlj 6/20/97
1057 1052 1053 1055 3
1057 1052 1053 1056 3
1059 1060 1061 1062 3 33.20422 0.00000 -33.20422 0.00000 0.00000 0.00000 ; methylguanidinium ion
1059 1060 1061 1066 3 20.50160 0.00000 -20.50160 0.00000 0.00000 0.00000 ; imides
1060 1061 1062 1063 3 25.47638 0.00000 -25.47638 0.00000 0.00000 0.00000 ; amides O-C(O)-N-C
1060 1061 1062 1064 3
1060 1061 1062 1065 3
1066 1061 1062 1063 3 20.50160 0.00000 -20.50160 0.00000 0.00000 0.00000 ; amides wlj 6/20/97
1066 1061 1062 1064 3
1066 1061 1062 1065 3
1068 1069 1070 1071 3 33.20422 0.00000 -33.20422 0.00000 0.00000 0.00000 ; methylguanidinium ion
1068 1069 1070 1076 3 20.50160 0.00000 -20.50160 0.00000 0.00000 0.00000 ; imides
1069 1070 1071 1072 3 25.47638 0.00000 -25.47638 0.00000 0.00000 0.00000 ; amides O-C(O)-N-C
1069 1070 1071 1074 3
1069 1070 1071 1075 3
1070 1071 1072 1073 3 16.73600 4.18400 -20.92000 0.00000 0.00000 0.00000 ; carbamates
1074 1071 1072 1073 3
1075 1071 1072 1073 3
1076 1070 1071 1072 3 20.50160 0.00000 -20.50160 0.00000 0.00000 0.00000 ; amides wlj 6/20/97
1076 1070 1071 1074 3
1076 1070 1071 1075 3
1078 1079 1080 1081 3 33.20422 0.00000 -33.20422 0.00000 0.00000 0.00000 ; methylguanidinium ion
1078 1079 1080 1085 3 20.50160 0.00000 -20.50160 0.00000 0.00000 0.00000 ; imides
1079 1080 1081 1082 3 25.47638 0.00000 -25.47638 0.00000 0.00000 0.00000 ; amides O-C(O)-N-C
1079 1080 1081 1083 3
1079 1080 1081 1084 3
1085 1080 1081 1082 3 20.50160 0.00000 -20.50160 0.00000 0.00000 0.00000 ; amides wlj 6/20/97
1085 1080 1081 1083 3
1085 1080 1081 1084 3
1087 1088 1089 1090 3 33.20422 0.00000 -33.20422 0.00000 0.00000 0.00000 ; methylguanidinium ion
1087 1088 1089 1095 3 20.50160 0.00000 -20.50160 0.00000 0.00000 0.00000 ; imides
1088 1089 1090 1091 3 25.47638 0.00000 -25.47638 0.00000 0.00000 0.00000 ; amides O-C(O)-N-C
1088 1089 1090 1093 3
1088 1089 1090 1094 3
1089 1090 1091 1092 3 16.73600 4.18400 -20.92000 0.00000 0.00000 0.00000 ; carbamates
1093 1090 1091 1092 3
1094 1090 1091 1092 3
1095 1089 1090 1091 3 20.50160 0.00000 -20.50160 0.00000 0.00000 0.00000 ; amides wlj 6/20/97
1095 1089 1090 1093 3
1095 1089 1090 1094 3
1097 1098 1099 1100 3 33.20422 0.00000 -33.20422 0.00000 0.00000 0.00000 ; methylguanidinium ion
1097 1098 1099 1104 3 20.50160 0.00000 -20.50160 0.00000 0.00000 0.00000 ; imides
1098 1099 1100 1101 3 25.47638 0.00000 -25.47638 0.00000 0.00000 0.00000 ; amides O-C(O)-N-C
1098 1099 1100 1102 3
1098 1099 1100 1103 3
1104 1099 1100 1101 3 20.50160 0.00000 -20.50160 0.00000 0.00000 0.00000 ; amides wlj 6/20/97
1104 1099 1100 1102 3
1104 1099 1100 1103 3
1106 1107 1108 1109 3 33.20422 0.00000 -33.20422 0.00000 0.00000 0.00000 ; methylguanidinium ion
1106 1107 1108 1112 3 20.50160 0.00000 -20.50160 0.00000 0.00000 0.00000 ; imides
1107 1108 1109 1110 3
1107 1108 1109 1111 3
1112 1108 1109 1110 3
1112 1108 1109 1111 3
1114 1115 1116 1117 3 33.20422 0.00000 -33.20422 0.00000 0.00000 0.00000 ; methylguanidinium ion
1114 1115 1116 1121 3 20.50160 0.00000 -20.50160 0.00000 0.00000 0.00000 ; imides
1115 1116 1117 1118 3 25.47638 0.00000 -25.47638 0.00000 0.00000 0.00000 ; amides O-C(O)-N-C
1115 1116 1117 1119 3
1115 1116 1117 1120 3
1121 1116 1117 1118 3 20.50160 0.00000 -20.50160 0.00000 0.00000 0.00000 ; amides wlj 6/20/97
1121 1116 1117 1119 3
1121 1116 1117 1120 3
1123 1124 1125 1126 3 33.20422 0.00000 -33.20422 0.00000 0.00000 0.00000 ; methylguanidinium ion
1123 1124 1125 1130 3 20.50160 0.00000 -20.50160 0.00000 0.00000 0.00000 ; imides
1124 1125 1126 1127 3 25.47638 0.00000 -25.47638 0.00000 0.00000 0.00000 ; amides O-C(O)-N-C
1124 1125 1126 1128 3
1124 1125 1126 1129 3
1130 1125 1126 1127 3 20.50160 0.00000 -20.50160 0.00000 0.00000 0.00000 ; amides wlj 6/20/97
1130 1125 1126 1128 3
1130 1125 1126 1129 3
1132 1133 1134 1135 3 33.20422 0.00000 -33.20422 0.00000 0.00000 0.00000 ; methylguanidinium ion
1132 1133 1134 1139 3 20.50160 0.00000 -20.50160 0.00000 0.00000 0.00000 ; imides
1133 1134 1135 1136 3 25.47638 0.00000 -25.47638 0.00000 0.00000 0.00000 ; amides O-C(O)-N-C
1133 1134 1135 1137 3
1133 1134 1135 1138 3
1139 1134 1135 1136 3 20.50160 0.00000 -20.50160 0.00000 0.00000 0.00000 ; amides wlj 6/20/97
1139 1134 1135 1137 3
1139 1134 1135 1138 3
1141 1142 1143 1144 3 33.20422 0.00000 -33.20422 0.00000 0.00000 0.00000 ; methylguanidinium ion
1141 1142 1143 1148 3 20.50160 0.00000 -20.50160 0.00000 0.00000 0.00000 ; imides
1142 1143 1144 1145 3 25.47638 0.00000 -25.47638 0.00000 0.00000 0.00000 ; amides O-C(O)-N-C
1142 1143 1144 1146 3
1142 1143 1144 1147 3
1148 1143 1144 1145 3 20.50160 0.00000 -20.50160 0.00000 0.00000 0.00000 ; amides wlj 6/20/97
1148 1143 1144 1146 3
1148 1143 1144 1147 3
1150 1151 1152 1153 3 33.20422 0.00000 -33.20422 0.00000 0.00000 0.00000 ; methylguanidinium ion
1150 1151 1152 1157 3 20.50160 0.00000 -20.50160 0.00000 0.00000 0.00000 ; imides
1151 1152 1153 1154 3 25.47638 0.00000 -25.47638 0.00000 0.00000 0.00000 ; amides O-C(O)-N-C
1151 1152 1153 1155 3
1151 1152 1153 1156 3
1157 1152 1153 1154 3 20.50160 0.00000 -20.50160 0.00000 0.00000 0.00000 ; amides wlj 6/20/97
1157 1152 1153 1155 3
1157 1152 1153 1156 3
1159 1160 1161 1162 3 33.20422 0.00000 -33.20422 0.00000 0.00000 0.00000 ; methylguanidinium ion
1159 1160 1161 1166 3 20.50160 0.00000 -20.50160 0.00000 0.00000 0.00000 ; imides
1160 1161 1162 1163 3 25.47638 0.00000 -25.47638 0.00000 0.00000 0.00000 ; amides O-C(O)-N-C
1160 1161 1162 1164 3
1160 1161 1162 1165 3
1166 1161 1162 1163 3 20.50160 0.00000 -20.50160 0.00000 0.00000 0.00000 ; amides wlj 6/20/97
1166 1161 1162 1164 3
1166 1161 1162 1165 3
1168 1169 1170 1171 3 33.20422 0.00000 -33.20422 0.00000 0.00000 0.00000 ; methylguanidinium ion
1168 1169 1170 1175 3 20.50160 0.00000 -20.50160 0.00000 0.00000 0.00000 ; imides
1169 1170 1171 1172 3 25.47638 0.00000 -25.47638 0.00000 0.00000 0.00000 ; amides O-C(O)-N-C
1169 1170 1171 1173 3
1169 1170 1171 1174 3
1175 1170 1171 1172 3 20.50160 0.00000 -20.50160 0.00000 0.00000 0.00000 ; amides wlj 6/20/97
1175 1170 1171 1173 3
1175 1170 1171 1174 3
1177 1178 1179 1180 3 33.20422 0.00000 -33.20422 0.00000 0.00000 0.00000 ; methylguanidinium ion
1177 1178 1179 1184 3 20.50160 0.00000 -20.50160 0.00000 0.00000 0.00000 ; imides
1178 1179 1180 1181 3 25.47638 0.00000 -25.47638 0.00000 0.00000 0.00000 ; amides O-C(O)-N-C
1178 1179 1180 1182 3
1178 1179 1180 1183 3
1184 1179 1180 1181 3 20.50160 0.00000 -20.50160 0.00000 0.00000 0.00000 ; amides wlj 6/20/97
1184 1179 1180 1182 3
1184 1179 1180 1183 3
1186 1187 1188 1189 3 33.20422 0.00000 -33.20422 0.00000 0.00000 0.00000 ; methylguanidinium ion
1186 1187 1188 1193 3 20.50160 0.00000 -20.50160 0.00000 0.00000 0.00000 ; imides
1187 1188 1189 1190 3 25.47638 0.00000 -25.47638 0.00000 0.00000 0.00000 ; amides O-C(O)-N-C
1187 1188 1189 1191 3
1187 1188 1189 1192 3
1193 1188 1189 1190 3 20.50160 0.00000 -20.50160 0.00000 0.00000 0.00000 ; amides wlj 6/20/97
1193 1188 1189 1191 3
1193 1188 1189 1192 3
1195 1196 1197 1198 3 33.20422 0.00000 -33.20422 0.00000 0.00000 0.00000 ; methylguanidinium ion
1195 1196 1197 1202 3 20.50160 0.00000 -20.50160 0.00000 0.00000 0.00000 ; imides
1196 1197 1198 1199 3 25.47638 0.00000 -25.47638 0.00000 0.00000 0.00000 ; amides O-C(O)-N-C
1196 1197 1198 1200 3
1196 1197 1198 1201 3
1202 1197 1198 1199 3 20.50160 0.00000 -20.50160 0.00000 0.00000 0.00000 ; amides wlj 6/20/97
1202 1197 1198 1200 3
1202 1197 1198 1201 3
1204 1205 1206 1207 3 33.20422 0.00000 -33.20422 0.00000 0.00000 0.00000 ; methylguanidinium ion
1204 1205 1206 1210 3 20.50160 0.00000 -20.50160 0.00000 0.00000 0.00000 ; imides
1205 1206 1207 1208 3
1205 1206 1207 1209 3
1210 1206 1207 1208 3
1210 1206 1207 1209 3
1212 1213 1214 1215 3 33.20422 0.00000 -33.20422 0.00000 0.00000 0.00000 ; methylguanidinium ion
1212 1213 1214 1219 3 20.50160 0.00000 -20.50160 0.00000 0.00000 0.00000 ; imides
1213 1214 1215 1216 3 25.47638 0.00000 -25.47638 0.00000 0.00000 0.00000 ; amides O-C(O)-N-C
1213 1214 1215 1217 3
1213 1214 1215 1218 3
1219 1214 1215 1216 3 20.50160 0.00000 -20.50160 0.00000 0.00000 0.00000 ; amides wlj 6/20/97
1219 1214 1215 1217 3
1219 1214 1215 1218 3
1221 1222 1223 1224 3 33.20422 0.00000 -33.20422 0.00000 0.00000 0.00000 ; methylguanidinium ion
1221 1222 1223 1228 3 20.50160 0.00000 -20.50160 0.00000 0.00000 0.00000 ; imides
1222 1223 1224 1225 3 25.47638 0.00000 -25.47638 0.00000 0.00000 0.00000 ; amides O-C(O)-N-C
1222 1223 1224 1226 3
1222 1223 1224 1227 3
1228 1223 1224 1225 3 20.50160 0.00000 -20.50160 0.00000 0.00000 0.00000 ; amides wlj 6/20/97
1228 1223 1224 1226 3
1228 1223 1224 1227 3
1230 1231 1232 1233 3 33.20422 0.00000 -33.20422 0.00000 0.00000 0.00000 ; methylguanidinium ion
1230 1231 1232 1237 3 20.50160 0.00000 -20.50160 0.00000 0.00000 0.00000 ; imides
1231 1232 1233 1234 3 25.47638 0.00000 -25.47638 0.00000 0.00000 0.00000 ; amides O-C(O)-N-C
1231 1232 1233 1235 3
1231 1232 1233 1236 3
1237 1232 1233 1234 3 20.50160 0.00000 -20.50160 0.00000 0.00000 0.00000 ; amides wlj 6/20/97
1237 1232 1233 1235 3
1237 1232 1233 1236 3
1239 1240 1241 1242 3 33.20422 0.00000 -33.20422 0.00000 0.00000 0.00000 ; methylguanidinium ion
1239 1240 1241 1246 3 20.50160 0.00000 -20.50160 0.00000 0.00000 0.00000 ; imides
1240 1241 1242 1243 3 25.47638 0.00000 -25.47638 0.00000 0.00000 0.00000 ; amides O-C(O)-N-C
1240 1241 1242 1244 3
1240 1241 1242 1245 3
1246 1241 1242 1243 3 20.50160 0.00000 -20.50160 0.00000 0.00000 0.00000 ; amides wlj 6/20/97
1246 1241 1242 1244 3
1246 1241 1242 1245 3
1248 1249 1250 1251 3 33.20422 0.00000 -33.20422 0.00000 0.00000 0.00000 ; methylguanidinium ion
1248 1249 1250 1255 3 20.50160 0.00000 -20.50160 0.00000 0.00000 0.00000 ; imides
1249 1250 1251 1252 3 25.47638 0.00000 -25.47638 0.00000 0.00000 0.00000 ; amides O-C(O)-N-C
1249 1250 1251 1253 3
1249 1250 1251 1254 3
1255 1250 1251 1252 3 20.50160 0.00000 -20.50160 0.00000 0.00000 0.00000 ; amides wlj 6/20/97
1255 1250 1251 1253 3
1255 1250 1251 1254 3
1257 1258 1259 1260 3 33.20422 0.00000 -33.20422 0.00000 0.00000 0.00000 ; methylguanidinium ion
1257 1258 1259 1263 3 20.50160 0.00000 -20.50160 0.00000 0.00000 0.00000 ; imides
1258 1259 1260 1261 3
1258 1259 1260 1262 3
1263 1259 1260 1261 3
1263 1259 1260 1262 3
1265 1266 1267 1268 3 33.20422 0.00000 -33.20422 0.00000 0.00000 0.00000 ; methylguanidinium ion
1265 1266 1267 1272 3 20.50160 0.00000 -20.50160 0.00000 0.00000 0.00000 ; imides
1266 1267 1268 1269 3 25.47638 0.00000 -25.47638 0.00000 0.00000 0.00000 ; amides O-C(O)-N-C
1266 1267 1268 1270 3
1266 1267 1268 1271 3
1272 1267 1268 1269 3 20.50160 0.00000 -20.50160 0.00000 0.00000 0.00000 ; amides wlj 6/20/97
1272 1267 1268 1270 3
1272 1267 1268 1271 3
1274 1275 1276 1277 3 33.20422 0.00000 -33.20422 0.00000 0.00000 0.00000 ; methylguanidinium ion
1274 1275 1276 1282 3 20.50160 0.00000 -20.50160 0.00000 0.00000 0.00000 ; imides
1275 1276 1277 1278 3 25.47638 0.00000 -25.47638 0.00000 0.00000 0.00000 ; amides O-C(O)-N-C
1275 1276 1277 1280 3
1275 1276 1277 1281 3
1276 1277 1278 1279 3 16.73600 4.18400 -20.92000 0.00000 0.00000 0.00000 ; carbamates
1280 1277 1278 1279 3
1281 1277 1278 1279 3
1282 1276 1277 1278 3 20.50160 0.00000 -20.50160 0.00000 0.00000 0.00000 ; amides wlj 6/20/97
1282 1276 1277 1280 3
1282 1276 1277 1281 3
1284 1285 1286 1287 3 33.20422 0.00000 -33.20422 0.00000 0.00000 0.00000 ; methylguanidinium ion
1284 1285 1286 1291 3 20.50160 0.00000 -20.50160 0.00000 0.00000 0.00000 ; imides
1285 1286 1287 1288 3 25.47638 0.00000 -25.47638 0.00000 0.00000 0.00000 ; amides O-C(O)-N-C
1285 1286 1287 1289 3
1285 1286 1287 1290 3
1291 1286 1287 1288 3 20.50160 0.00000 -20.50160 0.00000 0.00000 0.00000 ; amides wlj 6/20/97
1291 1286 1287 1289 3
1291 1286 1287 1290 3
1293 1294 1295 1296 3 33.20422 0.00000 -33.20422 0.00000 0.00000 0.00000 ; methylguanidinium ion
1293 1294 1295 1300 3 20.50160 0.00000 -20.50160 0.00000 0.00000 0.00000 ; imides
1294 1295 1296 1297 3 25.47638 0.00000 -25.47638 0.00000 0.00000 0.00000 ; amides O-C(O)-N-C
1294 1295 1296 1298 3
1294 1295 1296 1299 3
1300 1295 1296 1297 3 20.50160 0.00000 -20.50160 0.00000 0.00000 0.00000 ; amides wlj 6/20/97
1300 1295 1296 1298 3
1300 1295 1296 1299 3
1302 1303 1304 1305 3 33.20422 0.00000 -33.20422 0.00000 0.00000 0.00000 ; methylguanidinium ion
1302 1303 1304 1309 3 20.50160 0.00000 -20.50160 0.00000 0.00000 0.00000 ; imides
1303 1304 1305 1306 3 25.47638 0.00000 -25.47638 0.00000 0.00000 0.00000 ; amides O-C(O)-N-C
1303 1304 1305 1307 3
1303 1304 1305 1308 3
1309 1304 1305 1306 3 20.50160 0.00000 -20.50160 0.00000 0.00000 0.00000 ; amides wlj 6/20/97
1309 1304 1305 1307 3
1309 1304 1305 1308 3
1311 1312 1313 1314 3 33.20422 0.00000 -33.20422 0.00000 0.00000 0.00000 ; methylguanidinium ion
1311 1312 1313 1318 3 20.50160 0.00000 -20.50160 0.00000 0.00000 0.00000 ; imides
1312 1313 1314 1315 3 25.47638 0.00000 -25.47638 0.00000 0.00000 0.00000 ; amides O-C(O)-N-C
1312 1313 1314 1316 3
1312 1313 1314 1317 3
1318 1313 1314 1315 3 20.50160 0.00000 -20.50160 0.00000 0.00000 0.00000 ; amides wlj 6/20/97
1318 1313 1314 1316 3
1318 1313 1314 1317 3
1320 1321 1322 1323 3 33.20422 0.00000 -33.20422 0.00000 0.00000 0.00000 ; methylguanidinium ion
1320 1321 1322 1327 3 20.50160 0.00000 -20.50160 0.00000 0.00000 0.00000 ; imides
1321 1322 1323 1324 3 25.47638 0.00000 -25.47638 0.00000 0.00000 0.00000 ; amides O-C(O)-N-C
1321 1322 1323 1325 3
1321 1322 1323 1326 3
1327 1322 1323 1324 3 20.50160 0.00000 -20.50160 0.00000 0.00000 0.00000 ; amides wlj 6/20/97
1327 1322 1323 1325 3
1327 1322 1323 1326 3
1329 1330 1331 1332 3 33.20422 0.00000 -33.20422 0.00000 0.00000 0.00000 ; methylguanidinium ion
1329 1330 1331 1336 3 20.50160 0.00000 -20.50160 0.00000 0.00000 0.00000 ; imides
1330 1331 1332 1333 3 25.47638 0.00000 -25.47638 0.00000 0.00000 0.00000 ; amides O-C(O)-N-C
1330 1331 1332 1334 3
1330 1331 1332 1335 3
1336 1331 1332 1333 3 20.50160 0.00000 -20.50160 0.00000 0.00000 0.00000 ; amides wlj 6/20/97
1336 1331 1332 1334 3
1336 1331 1332 1335 3
1338 1339 1340 1341 3 33.20422 0.00000 -33.20422 0.00000 0.00000 0.00000 ; methylguanidinium ion
1338 1339 1340 1345 3 20.50160 0.00000 -20.50160 0.00000 0.00000 0.00000 ; imides
1339 1340 1341 1342 3 25.47638 0.00000 -25.47638 0.00000 0.00000 0.00000 ; amides O-C(O)-N-C
1339 1340 1341 1343 3
1339 1340 1341 1344 3
1345 1340 1341 1342 3 20.50160 0.00000 -20.50160 0.00000 0.00000 0.00000 ; amides wlj 6/20/97
1345 1340 1341 1343 3
1345 1340 1341 1344 3
1347 1348 1349 1350 3 33.20422 0.00000 -33.20422 0.00000 0.00000 0.00000 ; methylguanidinium ion
1347 1348 1349 1354 3 20.50160 0.00000 -20.50160 0.00000 0.00000 0.00000 ; imides
1348 1349 1350 1351 3 25.47638 0.00000 -25.47638 0.00000 0.00000 0.00000 ; amides O-C(O)-N-C
1348 1349 1350 1352 3
1348 1349 1350 1353 3
1354 1349 1350 1351 3 20.50160 0.00000 -20.50160 0.00000 0.00000 0.00000 ; amides wlj 6/20/97
1354 1349 1350 1352 3
1354 1349 1350 1353 3
1356 1357 1358 1359 3 33.20422 0.00000 -33.20422 0.00000 0.00000 0.00000 ; methylguanidinium ion
1356 1357 1358 1364 3 20.50160 0.00000 -20.50160 0.00000 0.00000 0.00000 ; imides
1357 1358 1359 1360 3 25.47638 0.00000 -25.47638 0.00000 0.00000 0.00000 ; amides O-C(O)-N-C
1357 1358 1359 1362 3
1357 1358 1359 1363 3
1358 1359 1360 1361 3 16.73600 4.18400 -20.92000 0.00000 0.00000 0.00000 ; carbamates
1362 1359 1360 1361 3
1363 1359 1360 1361 3
1364 1358 1359 1360 3 20.50160 0.00000 -20.50160 0.00000 0.00000 0.00000 ; amides wlj 6/20/97
1364 1358 1359 1362 3
1364 1358 1359 1363 3
1366 1367 1368 1369 3 33.20422 0.00000 -33.20422 0.00000 0.00000 0.00000 ; methylguanidinium ion
1366 1367 1368 1373 3 20.50160 0.00000 -20.50160 0.00000 0.00000 0.00000 ; imides
1367 1368 1369 1370 3 25.47638 0.00000 -25.47638 0.00000 0.00000 0.00000 ; amides O-C(O)-N-C
1367 1368 1369 1371 3
1367 1368 1369 1372 3
1373 1368 1369 1370 3 20.50160 0.00000 -20.50160 0.00000 0.00000 0.00000 ; amides wlj 6/20/97
1373 1368 1369 1371 3
1373 1368 1369 1372 3
1375 1376 1377 1378 3 33.20422 0.00000 -33.20422 0.00000 0.00000 0.00000 ; methylguanidinium ion
1375 1376 1377 1382 3 20.50160 0.00000 -20.50160 0.00000 0.00000 0.00000 ; imides
1376 1377 1378 1379 3 25.47638 0.00000 -25.47638 0.00000 0.00000 0.00000 ; amides O-C(O)-N-C
1376 1377 1378 1380 3
1376 1377 1378 1381 3
1382 1377 1378 1379 3 20.50160 0.00000 -20.50160 0.00000 0.00000 0.00000 ; amides wlj 6/20/97
1382 1377 1378 1380 3
1382 1377 1378 1381 3
1384 1385 1386 1387 3 33.20422 0.00000 -33.20422 0.00000 0.00000 0.00000 ; methylguanidinium ion
1384 1385 1386 1391 3 20.50160 0.00000 -20.50160 0.00000 0.00000 0.00000 ; imides
1385 1386 1387 1388 3 25.47638 0.00000 -25.47638 0.00000 0.00000 0.00000 ; amides O-C(O)-N-C
1385 1386 1387 1389 3
1385 1386 1387 1390 3
1391 1386 1387 1388 3 20.50160 0.00000 -20.50160 0.00000 0.00000 0.00000 ; amides wlj 6/20/97
1391 1386 1387 1389 3
1391 1386 1387 1390 3
1393 1394 1395 1396 3 33.20422 0.00000 -33.20422 0.00000 0.00000 0.00000 ; methylguanidinium ion
1393 1394 1395 1400 3 20.50160 0.00000 -20.50160 0.00000 0.00000 0.00000 ; imides
1394 1395 1396 1397 3 25.47638 0.00000 -25.47638 0.00000 0.00000 0.00000 ; amides O-C(O)-N-C
1394 1395 1396 1398 3
1394 1395 1396 1399 3
1400 1395 1396 1397 3 20.50160 0.00000 -20.50160 0.00000 0.00000 0.00000 ; amides wlj 6/20/97
1400 1395 1396 1398 3
1400 1395 1396 1399 3
1402 1403 1404 1405 3 33.20422 0.00000 -33.20422 0.00000 0.00000 0.00000 ; methylguanidinium ion
1402 1403 1404 1410 3 20.50160 0.00000 -20.50160 0.00000 0.00000 0.00000 ; imides
1403 1404 1405 1406 3 25.47638 0.00000 -25.47638 0.00000 0.00000 0.00000 ; amides O-C(O)-N-C
1403 1404 1405 1408 3
1403 1404 1405 1409 3
1404 1405 1406 1407 3 16.73600 4.18400 -20.92000 0.00000 0.00000 0.00000 ; carbamates
1408 1405 1406 1407 3
1409 1405 1406 1407 3
1410 1404 1405 1406 3 20.50160 0.00000 -20.50160 0.00000 0.00000 0.00000 ; amides wlj 6/20/97
1410 1404 1405 1408 3
1410 1404 1405 1409 3
1412 1413 1414 1415 3 33.20422 0.00000 -33.20422 0.00000 0.00000 0.00000 ; methylguanidinium ion
1412 1413 1414 1419 3 20.50160 0.00000 -20.50160 0.00000 0.00000 0.00000 ; imides
1413 1414 1415 1416 3 25.47638 0.00000 -25.47638 0.00000 0.00000 0.00000 ; amides O-C(O)-N-C
1413 1414 1415 1417 3
1413 1414 1415 1418 3
1419 1414 1415 1416 3 20.50160 0.00000 -20.50160 0.00000 0.00000 0.00000 ; amides wlj 6/20/97
1419 1414 1415 1417 3
1419 1414 1415 1418 3
1421 1422 1423 1424 3 33.20422 0.00000 -33.20422 0.00000 0.00000 0.00000 ; methylguanidinium ion
1421 1422 1423 1427 3 20.50160 0.00000 -20.50160 0.00000 0.00000 0.00000 ; imides
1422 1423 1424 1425 3
1422 1423 1424 1426 3
1427 1423 1424 1425 3
1427 1423 1424 1426 3
1429 1430 1431 1432 3 33.20422 0.00000 -33.20422 0.00000 0.00000 0.00000 ; methylguanidinium ion
1429 1430 1431 1436 3 20.50160 0.00000 -20.50160 0.00000 0.00000 0.00000 ; imides
1430 1431 1432 1433 3 25.47638 0.00000 -25.47638 0.00000 0.00000 0.00000 ; amides O-C(O)-N-C
1430 1431 1432 1434 3
1430 1431 1432 1435 3
1436 1431 1432 1433 3 20.50160 0.00000 -20.50160 0.00000 0.00000 0.00000 ; amides wlj 6/20/97
1436 1431 1432 1434 3
1436 1431 1432 1435 3
1438 1439 1440 1441 3 33.20422 0.00000 -33.20422 0.00000 0.00000 0.00000 ; methylguanidinium ion
1438 1439 1440 1445 3 20.50160 0.00000 -20.50160 0.00000 0.00000 0.00000 ; imides
1439 1440 1441 1442 3 25.47638 0.00000 -25.47638 0.00000 0.00000 0.00000 ; amides O-C(O)-N-C
1439 1440 1441 1443 3
1439 1440 1441 1444 3
1445 1440 1441 1442 3 20.50160 0.00000 -20.50160 0.00000 0.00000 0.00000 ; amides wlj 6/20/97
1445 1440 1441 1443 3
1445 1440 1441 1444 3
1447 1448 1449 1450 3 33.20422 0.00000 -33.20422 0.00000 0.00000 0.00000 ; methylguanidinium ion
1447 1448 1449 1454 3 20.50160 0.00000 -20.50160 0.00000 0.00000 0.00000 ; imides
1448 1449 1450 1451 3 25.47638 0.00000 -25.47638 0.00000 0.00000 0.00000 ; amides O-C(O)-N-C
1448 1449 1450 1452 3
1448 1449 1450 1453 3
1454 1449 1450 1451 3 20.50160 0.00000 -20.50160 0.00000 0.00000 0.00000 ; amides wlj 6/20/97
1454 1449 1450 1452 3
1454 1449 1450 1453 3
1456 1457 1458 1459 3 33.20422 0.00000 -33.20422 0.00000 0.00000 0.00000 ; methylguanidinium ion
1456 1457 1458 1463 3 20.50160 0.00000 -20.50160 0.00000 0.00000 0.00000 ; imides
1457 1458 1459 1460 3 25.47638 0.00000 -25.47638 0.00000 0.00000 0.00000 ; amides O-C(O)-N-C
1457 1458 1459 1461 3
1457 1458 1459 1462 3
1463 1458 1459 1460 3 20.50160 0.00000 -20.50160 0.00000 0.00000 0.00000 ; amides wlj 6/20/97
1463 1458 1459 1461 3
1463 1458 1459 1462 3
1465 1466 1467 1468 3 33.20422 0.00000 -33.20422 0.00000 0.00000 0.00000 ; methylguanidinium ion
1465 1466 1467 1472 3 20.50160 0.00000 -20.50160 0.00000 0.00000 0.00000 ; imides
1466 1467 1468 1469 3 25.47638 0.00000 -25.47638 0.00000 0.00000 0.00000 ; amides O-C(O)-N-C
1466 1467 1468 1470 3
1466 1467 1468 1471 3
1472 1467 1468 1469 3 20.50160 0.00000 -20.50160 0.00000 0.00000 0.00000 ; amides wlj 6/20/97
1472 1467 1468 1470 3
1472 1467 1468 1471 3
1474 1475 1476 1477 3 33.20422 0.00000 -33.20422 0.00000 0.00000 0.00000 ; methylguanidinium ion
1474 1475 1476 1481 3 20.50160 0.00000 -20.50160 0.00000 0.00000 0.00000 ; imides
1475 1476 1477 1478 3 25.47638 0.00000 -25.47638 0.00000 0.00000 0.00000 ; amides O-C(O)-N-C
1475 1476 1477 1479 3
1475 1476 1477 1480 3
1481 1476 1477 1478 3 20.50160 0.00000 -20.50160 0.00000 0.00000 0.00000 ; amides wlj 6/20/97
1481 1476 1477 1479 3
1481 1476 1477 1480 3
1483 1484 1485 1486 3 33.20422 0.00000 -33.20422 0.00000 0.00000 0.00000 ; methylguanidinium ion
1483 1484 1485 1490 3 20.50160 0.00000 -20.50160 0.00000 0.00000 0.00000 ; imides
1484 1485 1486 1487 3 25.47638 0.00000 -25.47638 0.00000 0.00000 0.00000 ; amides O-C(O)-N-C
1484 1485 1486 1488 3
1484 1485 1486 1489 3
1490 1485 1486 1487 3 20.50160 0.00000 -20.50160 0.00000 0.00000 0.00000 ; amides wlj 6/20/97
1490 1485 1486 1488 3
1490 1485 1486 1489 3
1492 1493 1494 1495 3 33.20422 0.00000 -33.20422 0.00000 0.00000 0.00000 ; methylguanidinium ion
1492 1493 1494 1499 3 20.50160 0.00000 -20.50160 0.00000 0.00000 0.00000 ; imides
1493 1494 1495 1496 3 25.47638 0.00000 -25.47638 0.00000 0.00000 0.00000 ; amides O-C(O)-N-C
1493 1494 1495 1497 3
1493 1494 1495 1498 3
1499 1494 1495 1496 3 20.50160 0.00000 -20.50160 0.00000 0.00000 0.00000 ; amides wlj 6/20/97
1499 1494 1495 1497 3
1499 1494 1495 1498 3
1501 1502 1503 1504 3 33.20422 0.00000 -33.20422 0.00000 0.00000 0.00000 ; methylguanidinium ion
1501 1502 1503 1508 3 20.50160 0.00000 -20.50160 0.00000 0.00000 0.00000 ; imides
1502 1503 1504 1505 3 25.47638 0.00000 -25.47638 0.00000 0.00000 0.00000 ; amides O-C(O)-N-C
1502 1503 1504 1506 3
1502 1503 1504 1507 3
1508 1503 1504 1505 3 20.50160 0.00000 -20.50160 0.00000 0.00000 0.00000 ; amides wlj 6/20/97
1508 1503 1504 1506 3
1508 1503 1504 1507 3
1510 1511 1512 1513 3 33.20422 0.00000 -33.20422 0.00000 0.00000 0.00000 ; methylguanidinium ion
1510 1511 1512 1517 3 20.50160 0.00000 -20.50160 0.00000 0.00000 0.00000 ; imides
1511 1512 1513 1514 3 25.47638 0.00000 -25.47638 0.00000 0.00000 0.00000 ; amides O-C(O)-N-C
1511 1512 1513 1515 3
1511 1512 1513 1516 3
1517 1512 1513 1514 3 20.50160 0.00000 -20.50160 0.00000 0.00000 0.00000 ; amides wlj 6/20/97
1517 1512 1513 1515 3
1517 1512 1513 1516 3
1519 1520 1521 1522 3 33.20422 0.00000 -33.20422 0.00000 0.00000 0.00000 ; methylguanidinium ion
1519 1520 1521 1526 3 20.50160 0.00000 -20.50160 0.00000 0.00000 0.00000 ; imides
1520 1521 1522 1523 3 25.47638 0.00000 -25.47638 0.00000 0.00000 0.00000 ; amides O-C(O)-N-C
1520 1521 1522 1524 3
1520 1521 1522 1525 3
1526 1521 1522 1523 3 20.50160 0.00000 -20.50160 0.00000 0.00000 0.00000 ; amides wlj 6/20/97
1526 1521 1522 1524 3
1526 1521 1522 1525 3
1528 1529 1530 1531 3 33.20422 0.00000 -33.20422 0.00000 0.00000 0.00000 ; methylguanidinium ion
1528 1529 1530 1535 3 20.50160 0.00000 -20.50160 0.00000 0.00000 0.00000 ; imides
1529 1530 1531 1532 3 25.47638 0.00000 -25.47638 0.00000 0.00000 0.00000 ; amides O-C(O)-N-C
1529 1530 1531 1533 3
1529 1530 1531 1534 3
1535 1530 1531 1532 3 20.50160 0.00000 -20.50160 0.00000 0.00000 0.00000 ; amides wlj 6/20/97
1535 1530 1531 1533 3
1535 1530 1531 1534 3
1537 1538 1539 1540 3 33.20422 0.00000 -33.20422 0.00000 0.00000 0.00000 ; methylguanidinium ion
1537 1538 1539 1544 3 20.50160 0.00000 -20.50160 0.00000 0.00000 0.00000 ; imides
1538 1539 1540 1541 3 25.47638 0.00000 -25.47638 0.00000 0.00000 0.00000 ; amides O-C(O)-N-C
1538 1539 1540 1542 3
1538 1539 1540 1543 3
1544 1539 1540 1541 3 20.50160 0.00000 -20.50160 0.00000 0.00000 0.00000 ; amides wlj 6/20/97
1544 1539 1540 1542 3
1544 1539 1540 1543 3
1546 1547 1548 1549 3 33.20422 0.00000 -33.20422 0.00000 0.00000 0.00000 ; methylguanidinium ion
1546 1547 1548 1553 3 20.50160 0.00000 -20.50160 0.00000 0.00000 0.00000 ; imides
1547 1548 1549 1550 3 25.47638 0.00000 -25.47638 0.00000 0.00000 0.00000 ; amides O-C(O)-N-C
1547 1548 1549 1551 3
1547 1548 1549 1552 3
1553 1548 1549 1550 3 20.50160 0.00000 -20.50160 0.00000 0.00000 0.00000 ; amides wlj 6/20/97
1553 1548 1549 1551 3
1553 1548 1549 1552 3
1555 1556 1557 1558 3 33.20422 0.00000 -33.20422 0.00000 0.00000 0.00000 ; methylguanidinium ion
1555 1556 1557 1561 3 20.50160 0.00000 -20.50160 0.00000 0.00000 0.00000 ; imides
1556 1557 1558 1559 3
1556 1557 1558 1560 3
1561 1557 1558 1559 3
1561 1557 1558 1560 3
1563 1564 1565 1566 3 33.20422 0.00000 -33.20422 0.00000 0.00000 0.00000 ; methylguanidinium ion
1563 1564 1565 1570 3 20.50160 0.00000 -20.50160 0.00000 0.00000 0.00000 ; imides
1564 1565 1566 1567 3 25.47638 0.00000 -25.47638 0.00000 0.00000 0.00000 ; amides O-C(O)-N-C
1564 1565 1566 1568 3
1564 1565 1566 1569 3
1570 1565 1566 1567 3 20.50160 0.00000 -20.50160 0.00000 0.00000 0.00000 ; amides wlj 6/20/97
1570 1565 1566 1568 3
1570 1565 1566 1569 3
1572 1573 1574 1575 3 33.20422 0.00000 -33.20422 0.00000 0.00000 0.00000 ; methylguanidinium ion
1572 1573 1574 1579 3 20.50160 0.00000 -20.50160 0.00000 0.00000 0.00000 ; imides
1573 1574 1575 1576 3 25.47638 0.00000 -25.47638 0.00000 0.00000 0.00000 ; amides O-C(O)-N-C
1573 1574 1575 1577 3
1573 1574 1575 1578 3
1579 1574 1575 1576 3 20.50160 0.00000 -20.50160 0.00000 0.00000 0.00000 ; amides wlj 6/20/97
1579 1574 1575 1577 3
1579 1574 1575 1578 3
1581 1582 1583 1584 3 33.20422 0.00000 -33.20422 0.00000 0.00000 0.00000 ; methylguanidinium ion
1581 1582 1583 1588 3 20.50160 0.00000 -20.50160 0.00000 0.00000 0.00000 ; imides
1582 1583 1584 1585 3 25.47638 0.00000 -25.47638 0.00000 0.00000 0.00000 ; amides O-C(O)-N-C
1582 1583 1584 1586 3
1582 1583 1584 1587 3
1588 1583 1584 1585 3 20.50160 0.00000 -20.50160 0.00000 0.00000 0.00000 ; amides wlj 6/20/97
1588 1583 1584 1586 3
1588 1583 1584 1587 3
1590 1591 1592 1593 3 33.20422 0.00000 -33.20422 0.00000 0.00000 0.00000 ; methylguanidinium ion
1590 1591 1592 1597 3 20.50160 0.00000 -20.50160 0.00000 0.00000 0.00000 ; imides
1591 1592 1593 1594 3 25.47638 0.00000 -25.47638 0.00000 0.00000 0.00000 ; amides O-C(O)-N-C
1591 1592 1593 1595 3
1591 1592 1593 1596 3
1597 1592 1593 1594 3 20.50160 0.00000 -20.50160 0.00000 0.00000 0.00000 ; amides wlj 6/20/97
1597 1592 1593 1595 3
1597 1592 1593 1596 3
1599 1600 1601 1602 3 33.20422 0.00000 -33.20422 0.00000 0.00000 0.00000 ; methylguanidinium ion
1599 1600 1601 1606 3 20.50160 0.00000 -20.50160 0.00000 0.00000 0.00000 ; imides
1600 1601 1602 1603 3 25.47638 0.00000 -25.47638 0.00000 0.00000 0.00000 ; amides O-C(O)-N-C
1600 1601 1602 1604 3
1600 1601 1602 1605 3
1606 1601 1602 1603 3 20.50160 0.00000 -20.50160 0.00000 0.00000 0.00000 ; amides wlj 6/20/97
1606 1601 1602 1604 3
1606 1601 1602 1605 3
1608 1609 1610 1611 3 33.20422 0.00000 -33.20422 0.00000 0.00000 0.00000 ; methylguanidinium ion
1608 1609 1610 1615 3 20.50160 0.00000 -20.50160 0.00000 0.00000 0.00000 ; imides
1609 1610 1611 1612 3 25.47638 0.00000 -25.47638 0.00000 0.00000 0.00000 ; amides O-C(O)-N-C
1609 1610 1611 1613 3
1609 1610 1611 1614 3
1615 1610 1611 1612 3 20.50160 0.00000 -20.50160 0.00000 0.00000 0.00000 ; amides wlj 6/20/97
1615 1610 1611 1613 3
1615 1610 1611 1614 3
1617 1618 1619 1620 3 33.20422 0.00000 -33.20422 0.00000 0.00000 0.00000 ; methylguanidinium ion
1617 1618 1619 1624 3 20.50160 0.00000 -20.50160 0.00000 0.00000 0.00000 ; imides
1618 1619 1620 1621 3 25.47638 0.00000 -25.47638 0.00000 0.00000 0.00000 ; amides O-C(O)-N-C
1618 1619 1620 1622 3
1618 1619 1620 1623 3
1624 1619 1620 1621 3 20.50160 0.00000 -20.50160 0.00000 0.00000 0.00000 ; amides wlj 6/20/97
1624 1619 1620 1622 3
1624 1619 1620 1623 3
1626 1627 1628 1629 3 33.20422 0.00000 -33.20422 0.00000 0.00000 0.00000 ; methylguanidinium ion
1626 1627 1628 1633 3 20.50160 0.00000 -20.50160 0.00000 0.00000 0.00000 ; imides
1627 1628 1629 1630 3 25.47638 0.00000 -25.47638 0.00000 0.00000 0.00000 ; amides O-C(O)-N-C
1627 1628 1629 1631 3
1627 1628 1629 1632 3
1633 1628 1629 1630 3 20.50160 0.00000 -20.50160 0.00000 0.00000 0.00000 ; amides wlj 6/20/97
1633 1628 1629 1631 3
1633 1628 1629 1632 3
1635 1636 1637 1638 3 33.20422 0.00000 -33.20422 0.00000 0.00000 0.00000 ; methylguanidinium ion
1635 1636 1637 1642 3 20.50160 0.00000 -20.50160 0.00000 0.00000 0.00000 ; imides
1636 1637 1638 1639 3 25.47638 0.00000 -25.47638 0.00000 0.00000 0.00000 ; amides O-C(O)-N-C
1636 1637 1638 1640 3
1636 1637 1638 1641 3
1642 1637 1638 1639 3 20.50160 0.00000 -20.50160 0.00000 0.00000 0.00000 ; amides wlj 6/20/97
1642 1637 1638 1640 3
1642 1637 1638 1641 3
1644 1645 1646 1647 3 33.20422 0.00000 -33.20422 0.00000 0.00000 0.00000 ; methylguanidinium ion
1644 1645 1646 1652 3 20.50160 0.00000 -20.50160 0.00000 0.00000 0.00000 ; imides
1645 1646 1647 1648 3 25.47638 0.00000 -25.47638 0.00000 0.00000 0.00000 ; amides O-C(O)-N-C
1645 1646 1647 1650 3
1645 1646 1647 1651 3
1646 1647 1648 1649 3 16.73600 4.18400 -20.92000 0.00000 0.00000 0.00000 ; carbamates
1650 1647 1648 1649 3
1651 1647 1648 1649 3
1652 1646 1647 1648 3 20.50160 0.00000 -20.50160 0.00000 0.00000 0.00000 ; amides wlj 6/20/97
1652 1646 1647 1650 3
1652 1646 1647 1651 3
1654 1655 1656 1657 3 33.20422 0.00000 -33.20422 0.00000 0.00000 0.00000 ; methylguanidinium ion
1654 1655 1656 1661 3 20.50160 0.00000 -20.50160 0.00000 0.00000 0.00000 ; imides
1655 1656 1657 1658 3 25.47638 0.00000 -25.47638 0.00000 0.00000 0.00000 ; amides O-C(O)-N-C
1655 1656 1657 1659 3
1655 1656 1657 1660 3
1661 1656 1657 1658 3 20.50160 0.00000 -20.50160 0.00000 0.00000 0.00000 ; amides wlj 6/20/97
1661 1656 1657 1659 3
1661 1656 1657 1660 3
1663 1664 1665 1666 3 33.20422 0.00000 -33.20422 0.00000 0.00000 0.00000 ; methylguanidinium ion
1663 1664 1665 1670 3 20.50160 0.00000 -20.50160 0.00000 0.00000 0.00000 ; imides
1664 1665 1666 1667 3 25.47638 0.00000 -25.47638 0.00000 0.00000 0.00000 ; amides O-C(O)-N-C
1664 1665 1666 1668 3
1664 1665 1666 1669 3
1670 1665 1666 1667 3 20.50160 0.00000 -20.50160 0.00000 0.00000 0.00000 ; amides wlj 6/20/97
1670 1665 1666 1668 3
1670 1665 1666 1669 3
1672 1673 1674 1675 3 33.20422 0.00000 -33.20422 0.00000 0.00000 0.00000 ; methylguanidinium ion
1672 1673 1674 1678 3 20.50160 0.00000 -20.50160 0.00000 0.00000 0.00000 ; imides
1673 1674 1675 1676 3
1673 1674 1675 1677 3
1678 1674 1675 1676 3
1678 1674 1675 1677 3
1680 1681 1682 1683 3 33.20422 0.00000 -33.20422 0.00000 0.00000 0.00000 ; methylguanidinium ion
1680 1681 1682 1687 3 20.50160 0.00000 -20.50160 0.00000 0.00000 0.00000 ; imides
1681 1682 1683 1684 3 25.47638 0.00000 -25.47638 0.00000 0.00000 0.00000 ; amides O-C(O)-N-C
1681 1682 1683 1685 3
1681 1682 1683 1686 3
1687 1682 1683 1684 3 20.50160 0.00000 -20.50160 0.00000 0.00000 0.00000 ; amides wlj 6/20/97
1687 1682 1683 1685 3
1687 1682 1683 1686 3
1689 1690 1691 1692 3 33.20422 0.00000 -33.20422 0.00000 0.00000 0.00000 ; methylguanidinium ion
1689 1690 1691 1696 3 20.50160 0.00000 -20.50160 0.00000 0.00000 0.00000 ; imides
1690 1691 1692 1693 3 25.47638 0.00000 -25.47638 0.00000 0.00000 0.00000 ; amides O-C(O)-N-C
1690 1691 1692 1694 3
1690 1691 1692 1695 3
1696 1691 1692 1693 3 20.50160 0.00000 -20.50160 0.00000 0.00000 0.00000 ; amides wlj 6/20/97
1696 1691 1692 1694 3
1696 1691 1692 1695 3
1698 1699 1700 1701 3 33.20422 0.00000 -33.20422 0.00000 0.00000 0.00000 ; methylguanidinium ion
1698 1699 1700 1704 3 20.50160 0.00000 -20.50160 0.00000 0.00000 0.00000 ; imides
1699 1700 1701 1702 3
1699 1700 1701 1703 3
1704 1700 1701 1702 3
1704 1700 1701 1703 3
1706 1707 1708 1709 3 33.20422 0.00000 -33.20422 0.00000 0.00000 0.00000 ; methylguanidinium ion
1706 1707 1708 1712 3 20.50160 0.00000 -20.50160 0.00000 0.00000 0.00000 ; imides
1707 1708 1709 1710 3
1707 1708 1709 1711 3
1712 1708 1709 1710 3
1712 1708 1709 1711 3
1714 1715 1716 1717 3 33.20422 0.00000 -33.20422 0.00000 0.00000 0.00000 ; methylguanidinium ion
1714 1715 1716 1721 3 20.50160 0.00000 -20.50160 0.00000 0.00000 0.00000 ; imides
1715 1716 1717 1718 3 25.47638 0.00000 -25.47638 0.00000 0.00000 0.00000 ; amides O-C(O)-N-C
1715 1716 1717 1719 3
1715 1716 1717 1720 3
1721 1716 1717 1718 3 20.50160 0.00000 -20.50160 0.00000 0.00000 0.00000 ; amides wlj 6/20/97
1721 1716 1717 1719 3
1721 1716 1717 1720 3
1723 1724 1725 1726 3 33.20422 0.00000 -33.20422 0.00000 0.00000 0.00000 ; methylguanidinium ion
1723 1724 1725 1730 3 20.50160 0.00000 -20.50160 0.00000 0.00000 0.00000 ; imides
1724 1725 1726 1727 3 25.47638 0.00000 -25.47638 0.00000 0.00000 0.00000 ; amides O-C(O)-N-C
1724 1725 1726 1728 3
1724 1725 1726 1729 3
1730 1725 1726 1727 3 20.50160 0.00000 -20.50160 0.00000 0.00000 0.00000 ; amides wlj 6/20/97
1730 1725 1726 1728 3
1730 1725 1726 1729 3
1732 1733 1734 1735 3 33.20422 0.00000 -33.20422 0.00000 0.00000 0.00000 ; methylguanidinium ion
1732 1733 1734 1739 3 20.50160 0.00000 -20.50160 0.00000 0.00000 0.00000 ; imides
1733 1734 1735 1736 3 25.47638 0.00000 -25.47638 0.00000 0.00000 0.00000 ; amides O-C(O)-N-C
1733 1734 1735 1737 3
1733 1734 1735 1738 3
1739 1734 1735 1736 3 20.50160 0.00000 -20.50160 0.00000 0.00000 0.00000 ; amides wlj 6/20/97
1739 1734 1735 1737 3
1739 1734 1735 1738 3
1741 1742 1743 1744 3 33.20422 0.00000 -33.20422 0.00000 0.00000 0.00000 ; methylguanidinium ion
1741 1742 1743 1748 3 20.50160 0.00000 -20.50160 0.00000 0.00000 0.00000 ; imides
1742 1743 1744 1745 3 25.47638 0.00000 -25.47638 0.00000 0.00000 0.00000 ; amides O-C(O)-N-C
1742 1743 1744 1746 3
1742 1743 1744 1747 3
1748 1743 1744 1745 3 20.50160 0.00000 -20.50160 0.00000 0.00000 0.00000 ; amides wlj 6/20/97
1748 1743 1744 1746 3
1748 1743 1744 1747 3
1750 1751 1752 1753 3 33.20422 0.00000 -33.20422 0.00000 0.00000 0.00000 ; methylguanidinium ion
1750 1751 1752 1757 3 20.50160 0.00000 -20.50160 0.00000 0.00000 0.00000 ; imides
1751 1752 1753 1754 3 25.47638 0.00000 -25.47638 0.00000 0.00000 0.00000 ; amides O-C(O)-N-C
1751 1752 1753 1755 3
1751 1752 1753 1756 3
1757 1752 1753 1754 3 20.50160 0.00000 -20.50160 0.00000 0.00000 0.00000 ; amides wlj 6/20/97
1757 1752 1753 1755 3
1757 1752 1753 1756 3
1759 1760 1761 1762 3 33.20422 0.00000 -33.20422 0.00000 0.00000 0.00000 ; methylguanidinium ion
1759 1760 1761 1767 3 20.50160 0.00000 -20.50160 0.00000 0.00000 0.00000 ; imides
1760 1761 1762 1763 3 25.47638 0.00000 -25.47638 0.00000 0.00000 0.00000 ; amides O-C(O)-N-C
1760 1761 1762 1765 3
1760 1761 1762 1766 3
1761 1762 1763 1764 3 16.73600 4.18400 -20.92000 0.00000 0.00000 0.00000 ; carbamates
1765 1762 1763 1764 3
1766 1762 1763 1764 3
1767 1761 1762 1763 3 20.50160 0.00000 -20.50160 0.00000 0.00000 0.00000 ; amides wlj 6/20/97
1767 1761 1762 1765 3
1767 1761 1762 1766 3
1769 1770 1771 1772 3 33.20422 0.00000 -33.20422 0.00000 0.00000 0.00000 ; methylguanidinium ion
1769 1770 1771 1776 3 20.50160 0.00000 -20.50160 0.00000 0.00000 0.00000 ; imides
1770 1771 1772 1773 3 25.47638 0.00000 -25.47638 0.00000 0.00000 0.00000 ; amides O-C(O)-N-C
1770 1771 1772 1774 3
1770 1771 1772 1775 3
1776 1771 1772 1773 3 20.50160 0.00000 -20.50160 0.00000 0.00000 0.00000 ; amides wlj 6/20/97
1776 1771 1772 1774 3
1776 1771 1772 1775 3
1778 1779 1780 1781 3 33.20422 0.00000 -33.20422 0.00000 0.00000 0.00000 ; methylguanidinium ion
1778 1779 1780 1785 3 20.50160 0.00000 -20.50160 0.00000 0.00000 0.00000 ; imides
1779 1780 1781 1782 3 25.47638 0.00000 -25.47638 0.00000 0.00000 0.00000 ; amides O-C(O)-N-C
1779 1780 1781 1783 3
1779 1780 1781 1784 3
1785 1780 1781 1782 3 20.50160 0.00000 -20.50160 0.00000 0.00000 0.00000 ; amides wlj 6/20/97
1785 1780 1781 1783 3
1785 1780 1781 1784 3
1787 1788 1789 1790 3 33.20422 0.00000 -33.20422 0.00000 0.00000 0.00000 ; methylguanidinium ion
1787 1788 1789 1794 3 20.50160 0.00000 -20.50160 0.00000 0.00000 0.00000 ; imides
1788 1789 1790 1791 3 25.47638 0.00000 -25.47638 0.00000 0.00000 0.00000 ; amides O-C(O)-N-C
1788 1789 1790 1792 3
1788 1789 1790 1793 3
1794 1789 1790 1791 3 20.50160 0.00000 -20.50160 0.00000 0.00000 0.00000 ; amides wlj 6/20/97
1794 1789 1790 1792 3
1794 1789 1790 1793 3
1796 1797 1798 1799 3 33.20422 0.00000 -33.20422 0.00000 0.00000 0.00000 ; methylguanidinium ion
1796 1797 1798 1803 3 20.50160 0.00000 -20.50160 0.00000 0.00000 0.00000 ; imides
1797 1798 1799 1800 3 25.47638 0.00000 -25.47638 0.00000 0.00000 0.00000 ; amides O-C(O)-N-C
1797 1798 1799 1801 3
1797 1798 1799 1802 3
1803 1798 1799 1800 3 20.50160 0.00000 -20.50160 0.00000 0.00000 0.00000 ; amides wlj 6/20/97
1803 1798 1799 1801 3
1803 1798 1799 1802 3
1805 1806 1807 1808 3 33.20422 0.00000 -33.20422 0.00000 0.00000 0.00000 ; methylguanidinium ion
1805 1806 1807 1812 3 20.50160 0.00000 -20.50160 0.00000 0.00000 0.00000 ; imides
1806 1807 1808 1809 3 25.47638 0.00000 -25.47638 0.00000 0.00000 0.00000 ; amides O-C(O)-N-C
1806 1807 1808 1810 3
1806 1807 1808 1811 3
1812 1807 1808 1809 3 20.50160 0.00000 -20.50160 0.00000 0.00000 0.00000 ; amides wlj 6/20/97
1812 1807 1808 1810 3
1812 1807 1808 1811 3
1814 1815 1816 1817 3 33.20422 0.00000 -33.20422 0.00000 0.00000 0.00000 ; methylguanidinium ion
1814 1815 1816 1821 3 20.50160 0.00000 -20.50160 0.00000 0.00000 0.00000 ; imides
1815 1816 1817 1818 3 25.47638 0.00000 -25.47638 0.00000 0.00000 0.00000 ; amides O-C(O)-N-C
1815 1816 1817 1819 3
1815 1816 1817 1820 3
1821 1816 1817 1818 3 20.50160 0.00000 -20.50160 0.00000 0.00000 0.00000 ; amides wlj 6/20/97
1821 1816 1817 1819 3
1821 1816 1817 1820 3
1823 1824 1825 1826 3 33.20422 0.00000 -33.20422 0.00000 0.00000 0.00000 ; methylguanidinium ion
1823 1824 1825 1830 3 20.50160 0.00000 -20.50160 0.00000 0.00000 0.00000 ; imides
1824 1825 1826 1827 3 25.47638 0.00000 -25.47638 0.00000 0.00000 0.00000 ; amides O-C(O)-N-C
1824 1825 1826 1828 3
1824 1825 1826 1829 3
1830 1825 1826 1827 3 20.50160 0.00000 -20.50160 0.00000 0.00000 0.00000 ; amides wlj 6/20/97
1830 1825 1826 1828 3
1830 1825 1826 1829 3
1832 1833 1834 1835 3 33.20422 0.00000 -33.20422 0.00000 0.00000 0.00000 ; methylguanidinium ion
1832 1833 1834 1840 3 20.50160 0.00000 -20.50160 0.00000 0.00000 0.00000 ; imides
1833 1834 1835 1836 3 25.47638 0.00000 -25.47638 0.00000 0.00000 0.00000 ; amides O-C(O)-N-C
1833 1834 1835 1838 3
1833 1834 1835 1839 3
1834 1835 1836 1837 3 16.73600 4.18400 -20.92000 0.00000 0.00000 0.00000 ; carbamates
1838 1835 1836 1837 3
1839 1835 1836 1837 3
1840 1834 1835 1836 3 20.50160 0.00000 -20.50160 0.00000 0.00000 0.00000 ; amides wlj 6/20/97
1840 1834 1835 1838 3
1840 1834 1835 1839 3
1842 1843 1844 1845 3 33.20422 0.00000 -33.20422 0.00000 0.00000 0.00000 ; methylguanidinium ion
1842 1843 1844 1849 3 20.50160 0.00000 -20.50160 0.00000 0.00000 0.00000 ; imides
1843 1844 1845 1846 3 25.47638 0.00000 -25.47638 0.00000 0.00000 0.00000 ; amides O-C(O)-N-C
1843 1844 1845 1847 3
1843 1844 1845 1848 3
1849 1844 1845 1846 3 20.50160 0.00000 -20.50160 0.00000 0.00000 0.00000 ; amides wlj 6/20/97
1849 1844 1845 1847 3
1849 1844 1845 1848 3
1851 1852 1853 1854 3 33.20422 0.00000 -33.20422 0.00000 0.00000 0.00000 ; methylguanidinium ion
1851 1852 1853 1857 3 20.50160 0.00000 -20.50160 0.00000 0.00000 0.00000 ; imides
1852 1853 1854 1855 3
1852 1853 1854 1856 3
1857 1853 1854 1855 3
1857 1853 1854 1856 3
1859 1860 1861 1862 3 33.20422 0.00000 -33.20422 0.00000 0.00000 0.00000 ; methylguanidinium ion
1859 1860 1861 1866 3 20.50160 0.00000 -20.50160 0.00000 0.00000 0.00000 ; imides
1860 1861 1862 1863 3 25.47638 0.00000 -25.47638 0.00000 0.00000 0.00000 ; amides O-C(O)-N-C
1860 1861 1862 1864 3
1860 1861 1862 1865 3
1866 1861 1862 1863 3 20.50160 0.00000 -20.50160 0.00000 0.00000 0.00000 ; amides wlj 6/20/97
1866 1861 1862 1864 3
1866 1861 1862 1865 3
1868 1869 1870 1871 3 33.20422 0.00000 -33.20422 0.00000 0.00000 0.00000 ; methylguanidinium ion
1868 1869 1870 1875 3 20.50160 0.00000 -20.50160 0.00000 0.00000 0.00000 ; imides
1869 1870 1871 1872 3 25.47638 0.00000 -25.47638 0.00000 0.00000 0.00000 ; amides O-C(O)-N-C
1869 1870 1871 1873 3
1869 1870 1871 1874 3
1875 1870 1871 1872 3 20.50160 0.00000 -20.50160 0.00000 0.00000 0.00000 ; amides wlj 6/20/97
1875 1870 1871 1873 3
1875 1870 1871 1874 3
1877 1878 1879 1880 3 33.20422 0.00000 -33.20422 0.00000 0.00000 0.00000 ; methylguanidinium ion
1877 1878 1879 1884 3 20.50160 0.00000 -20.50160 0.00000 0.00000 0.00000 ; imides
1878 1879 1880 1881 3 25.47638 0.00000 -25.47638 0.00000 0.00000 0.00000 ; amides O-C(O)-N-C
1878 1879 1880 1882 3
1878 1879 1880 1883 3
1884 1879 1880 1881 3 20.50160 0.00000 -20.50160 0.00000 0.00000 0.00000 ; amides wlj 6/20/97
1884 1879 1880 1882 3
1884 1879 1880 1883 3
1886 1887 1888 1889 3 33.20422 0.00000 -33.20422 0.00000 0.00000 0.00000 ; methylguanidinium ion
1886 1887 1888 1893 3 20.50160 0.00000 -20.50160 0.00000 0.00000 0.00000 ; imides
1887 1888 1889 1890 3 25.47638 0.00000 -25.47638 0.00000 0.00000 0.00000 ; amides O-C(O)-N-C
1887 1888 1889 1891 3
1887 1888 1889 1892 3
1893 1888 1889 1890 3 20.50160 0.00000 -20.50160 0.00000 0.00000 0.00000 ; amides wlj 6/20/97
1893 1888 1889 1891 3
1893 1888 1889 1892 3
1895 1896 1897 1898 3 33.20422 0.00000 -33.20422 0.00000 0.00000 0.00000 ; methylguanidinium ion
1895 1896 1897 1902 3 20.50160 0.00000 -20.50160 0.00000 0.00000 0.00000 ; imides
1896 1897 1898 1899 3 25.47638 0.00000 -25.47638 0.00000 0.00000 0.00000 ; amides O-C(O)-N-C
1896 1897 1898 1900 3
1896 1897 1898 1901 3
1902 1897 1898 1899 3 20.50160 0.00000 -20.50160 0.00000 0.00000 0.00000 ; amides wlj 6/20/97
1902 1897 1898 1900 3
1902 1897 1898 1901 3
1904 1905 1906 1907 3 33.20422 0.00000 -33.20422 0.00000 0.00000 0.00000 ; methylguanidinium ion
1904 1905 1906 1910 3 20.50160 0.00000 -20.50160 0.00000 0.00000 0.00000 ; imides
1905 1906 1907 1908 3
1905 1906 1907 1909 3
1910 1906 1907 1908 3
1910 1906 1907 1909 3
1912 1913 1914 1915 3 33.20422 0.00000 -33.20422 0.00000 0.00000 0.00000 ; methylguanidinium ion
1912 1913 1914 1919 3 20.50160 0.00000 -20.50160 0.00000 0.00000 0.00000 ; imides
1913 1914 1915 1916 3 25.47638 0.00000 -25.47638 0.00000 0.00000 0.00000 ; amides O-C(O)-N-C
1913 1914 1915 1917 3
1913 1914 1915 1918 3
1919 1914 1915 1916 3 20.50160 0.00000 -20.50160 0.00000 0.00000 0.00000 ; amides wlj 6/20/97
1919 1914 1915 1917 3
1919 1914 1915 1918 3
1921 1922 1923 1924 3 33.20422 0.00000 -33.20422 0.00000 0.00000 0.00000 ; methylguanidinium ion
1921 1922 1923 1927 3 20.50160 0.00000 -20.50160 0.00000 0.00000 0.00000 ; imides
1922 1923 1924 1925 3
1922 1923 1924 1926 3
1927 1923 1924 1925 3
1927 1923 1924 1926 3
1929 1930 1931 1932 3 33.20422 0.00000 -33.20422 0.00000 0.00000 0.00000 ; methylguanidinium ion
1929 1930 1931 1936 3 20.50160 0.00000 -20.50160 0.00000 0.00000 0.00000 ; imides
1930 1931 1932 1933 3 25.47638 0.00000 -25.47638 0.00000 0.00000 0.00000 ; amides O-C(O)-N-C
1930 1931 1932 1934 3
1930 1931 1932 1935 3
1936 1931 1932 1933 3 20.50160 0.00000 -20.50160 0.00000 0.00000 0.00000 ; amides wlj 6/20/97
1936 1931 1932 1934 3
1936 1931 1932 1935 3
1938 1939 1940 1941 3 33.20422 0.00000 -33.20422 0.00000 0.00000 0.00000 ; methylguanidinium ion
1938 1939 1940 1945 3 20.50160 0.00000 -20.50160 0.00000 0.00000 0.00000 ; imides
1939 1940 1941 1942 3 25.47638 0.00000 -25.47638 0.00000 0.00000 0.00000 ; amides O-C(O)-N-C
1939 1940 1941 1943 3
1939 1940 1941 1944 3
1945 1940 1941 1942 3 20.50160 0.00000 -20.50160 0.00000 0.00000 0.00000 ; amides wlj 6/20/97
1945 1940 1941 1943 3
1945 1940 1941 1944 3
1947 1948 1949 1950 3 33.20422 0.00000 -33.20422 0.00000 0.00000 0.00000 ; methylguanidinium ion
1947 1948 1949 1954 3 20.50160 0.00000 -20.50160 0.00000 0.00000 0.00000 ; imides
1948 1949 1950 1951 3 25.47638 0.00000 -25.47638 0.00000 0.00000 0.00000 ; amides O-C(O)-N-C
1948 1949 1950 1952 3
1948 1949 1950 1953 3
1954 1949 1950 1951 3 20.50160 0.00000 -20.50160 0.00000 0.00000 0.00000 ; amides wlj 6/20/97
1954 1949 1950 1952 3
1954 1949 1950 1953 3
1956 1957 1958 1959 3 33.20422 0.00000 -33.20422 0.00000 0.00000 0.00000 ; methylguanidinium ion
1956 1957 1958 1963 3 20.50160 0.00000 -20.50160 0.00000 0.00000 0.00000 ; imides
1957 1958 1959 1960 3 25.47638 0.00000 -25.47638 0.00000 0.00000 0.00000 ; amides O-C(O)-N-C
1957 1958 1959 1961 3
1957 1958 1959 1962 3
1963 1958 1959 1960 3 20.50160 0.00000 -20.50160 0.00000 0.00000 0.00000 ; amides wlj 6/20/97
1963 1958 1959 1961 3
1963 1958 1959 1962 3
1965 1966 1967 1968 3 33.20422 0.00000 -33.20422 0.00000 0.00000 0.00000 ; methylguanidinium ion
1965 1966 1967 1972 3 20.50160 0.00000 -20.50160 0.00000 0.00000 0.00000 ; imides
1966 1967 1968 1969 3 25.47638 0.00000 -25.47638 0.00000 0.00000 0.00000 ; amides O-C(O)-N-C
1966 1967 1968 1970 3
1966 1967 1968 1971 3
1972 1967 1968 1969 3 20.50160 0.00000 -20.50160 0.00000 0.00000 0.00000 ; amides wlj 6/20/97
1972 1967 1968 1970 3
1972 1967 1968 1971 3
1974 1975 1976 1977 3 33.20422 0.00000 -33.20422 0.00000 0.00000 0.00000 ; methylguanidinium ion
1974 1975 1976 1981 3 20.50160 0.00000 -20.50160 0.00000 0.00000 0.00000 ; imides
1975 1976 1977 1978 3 25.47638 0.00000 -25.47638 0.00000 0.00000 0.00000 ; amides O-C(O)-N-C
1975 1976 1977 1979 3
1975 1976 1977 1980 3
1981 1976 1977 1978 3 20.50160 0.00000 -20.50160 0.00000 0.00000 0.00000 ; amides wlj 6/20/97
1981 1976 1977 1979 3
1981 1976 1977 1980 3
1983 1984 1985 1986 3 33.20422 0.00000 -33.20422 0.00000 0.00000 0.00000 ; methylguanidinium ion
1983 1984 1985 1990 3 20.50160 0.00000 -20.50160 0.00000 0.00000 0.00000 ; imides
1984 1985 1986 1987 3 25.47638 0.00000 -25.47638 0.00000 0.00000 0.00000 ; amides O-C(O)-N-C
1984 1985 1986 1988 3
1984 1985 1986 1989 3
1990 1985 1986 1987 3 20.50160 0.00000 -20.50160 0.00000 0.00000 0.00000 ; amides wlj 6/20/97
1990 1985 1986 1988 3
1990 1985 1986 1989 3
1992 1993 1994 1995 3 33.20422 0.00000 -33.20422 0.00000 0.00000 0.00000 ; methylguanidinium ion
1992 1993 1994 1999 3 20.50160 0.00000 -20.50160 0.00000 0.00000 0.00000 ; imides
1993 1994 1995 1996 3 25.47638 0.00000 -25.47638 0.00000 0.00000 0.00000 ; amides O-C(O)-N-C
1993 1994 1995 1997 3
1993 1994 1995 1998 3
1999 1994 1995 1996 3 20.50160 0.00000 -20.50160 0.00000 0.00000 0.00000 ; amides wlj 6/20/97
1999 1994 1995 1997 3
1999 1994 1995 1998 3
2001 2002 2003 2004 3 33.20422 0.00000 -33.20422 0.00000 0.00000 0.00000 ; methylguanidinium ion
2001 2002 2003 2008 3 20.50160 0.00000 -20.50160 0.00000 0.00000 0.00000 ; imides
2002 2003 2004 2005 3 25.47638 0.00000 -25.47638 0.00000 0.00000 0.00000 ; amides O-C(O)-N-C
2002 2003 2004 2006 3
2002 2003 2004 2007 3
2008 2003 2004 2005 3 20.50160 0.00000 -20.50160 0.00000 0.00000 0.00000 ; amides wlj 6/20/97
2008 2003 2004 2006 3
2008 2003 2004 2007 3
2010 2011 2012 2013 3 33.20422 0.00000 -33.20422 0.00000 0.00000 0.00000 ; methylguanidinium ion
2010 2011 2012 2017 3 20.50160 0.00000 -20.50160 0.00000 0.00000 0.00000 ; imides
2011 2012 2013 2014 3 25.47638 0.00000 -25.47638 0.00000 0.00000 0.00000 ; amides O-C(O)-N-C
2011 2012 2013 2015 3
2011 2012 2013 2016 3
2017 2012 2013 2014 3 20.50160 0.00000 -20.50160 0.00000 0.00000 0.00000 ; amides wlj 6/20/97
2017 2012 2013 2015 3
2017 2012 2013 2016 3
2019 2020 2021 2022 3 33.20422 0.00000 -33.20422 0.00000 0.00000 0.00000 ; methylguanidinium ion
2019 2020 2021 2026 3 20.50160 0.00000 -20.50160 0.00000 0.00000 0.00000 ; imides
2020 2021 2022 2023 3 25.47638 0.00000 -25.47638 0.00000 0.00000 0.00000 ; amides O-C(O)-N-C
2020 2021 2022 2024 3
2020 2021 2022 2025 3
2026 2021 2022 2023 3 20.50160 0.00000 -20.50160 0.00000 0.00000 0.00000 ; amides wlj 6/20/97
2026 2021 2022 2024 3
2026 2021 2022 2025 3
2028 2029 2030 2031 3 33.20422 0.00000 -33.20422 0.00000 0.00000 0.00000 ; methylguanidinium ion
2028 2029 2030 2035 3 20.50160 0.00000 -20.50160 0.00000 0.00000 0.00000 ; imides
2029 2030 2031 2032 3 25.47638 0.00000 -25.47638 0.00000 0.00000 0.00000 ; amides O-C(O)-N-C
2029 2030 2031 2033 3
2029 2030 2031 2034 3
2035 2030 2031 2032 3 20.50160 0.00000 -20.50160 0.00000 0.00000 0.00000 ; amides wlj 6/20/97
2035 2030 2031 2033 3
2035 2030 2031 2034 3
2037 2038 2039 2040 3 33.20422 0.00000 -33.20422 0.00000 0.00000 0.00000 ; methylguanidinium ion
2037 2038 2039 2044 3 20.50160 0.00000 -20.50160 0.00000 0.00000 0.00000 ; imides
2038 2039 2040 2041 3 25.47638 0.00000 -25.47638 0.00000 0.00000 0.00000 ; amides O-C(O)-N-C
2038 2039 2040 2042 3
2038 2039 2040 2043 3
2044 2039 2040 2041 3 20.50160 0.00000 -20.50160 0.00000 0.00000 0.00000 ; amides wlj 6/20/97
2044 2039 2040 2042 3
2044 2039 2040 2043 3
2046 2047 2048 2049 3 33.20422 0.00000 -33.20422 0.00000 0.00000 0.00000 ; methylguanidinium ion
2046 2047 2048 2053 3 20.50160 0.00000 -20.50160 0.00000 0.00000 0.00000 ; imides
2047 2048 2049 2050 3 25.47638 0.00000 -25.47638 0.00000 0.00000 0.00000 ; amides O-C(O)-N-C
2047 2048 2049 2051 3
2047 2048 2049 2052 3
2053 2048 2049 2050 3 20.50160 0.00000 -20.50160 0.00000 0.00000 0.00000 ; amides wlj 6/20/97
2053 2048 2049 2051 3
2053 2048 2049 2052 3
2055 2056 2057 2058 3 33.20422 0.00000 -33.20422 0.00000 0.00000 0.00000 ; methylguanidinium ion
2055 2056 2057 2062 3 20.50160 0.00000 -20.50160 0.00000 0.00000 0.00000 ; imides
2056 2057 2058 2059 3 25.47638 0.00000 -25.47638 0.00000 0.00000 0.00000 ; amides O-C(O)-N-C
2056 2057 2058 2060 3
2056 2057 2058 2061 3
2062 2057 2058 2059 3 20.50160 0.00000 -20.50160 0.00000 0.00000 0.00000 ; amides wlj 6/20/97
2062 2057 2058 2060 3
2062 2057 2058 2061 3
2064 2065 2066 2067 3 33.20422 0.00000 -33.20422 0.00000 0.00000 0.00000 ; methylguanidinium ion
2064 2065 2066 2071 3 20.50160 0.00000 -20.50160 0.00000 0.00000 0.00000 ; imides
2065 2066 2067 2068 3 25.47638 0.00000 -25.47638 0.00000 0.00000 0.00000 ; amides O-C(O)-N-C
2065 2066 2067 2069 3
2065 2066 2067 2070 3
2071 2066 2067 2068 3 20.50160 0.00000 -20.50160 0.00000 0.00000 0.00000 ; amides wlj 6/20/97
2071 2066 2067 2069 3
2071 2066 2067 2070 3
2073 2074 2075 2076 3 33.20422 0.00000 -33.20422 0.00000 0.00000 0.00000 ; methylguanidinium ion
2073 2074 2075 2080 3 20.50160 0.00000 -20.50160 0.00000 0.00000 0.00000 ; imides
2074 2075 2076 2077 3 25.47638 0.00000 -25.47638 0.00000 0.00000 0.00000 ; amides O-C(O)-N-C
2074 2075 2076 2078 3
2074 2075 2076 2079 3
2080 2075 2076 2077 3 20.50160 0.00000 -20.50160 0.00000 0.00000 0.00000 ; amides wlj 6/20/97
2080 2075 2076 2078 3
2080 2075 2076 2079 3
2082 2083 2084 2085 3 33.20422 0.00000 -33.20422 0.00000 0.00000 0.00000 ; methylguanidinium ion
2082 2083 2084 2088 3 20.50160 0.00000 -20.50160 0.00000 0.00000 0.00000 ; imides
2083 2084 2085 2086 3
2083 2084 2085 2087 3
2088 2084 2085 2086 3
2088 2084 2085 2087 3
2090 2091 2092 2093 3 33.20422 0.00000 -33.20422 0.00000 0.00000 0.00000 ; methylguanidinium ion
2090 2091 2092 2097 3 20.50160 0.00000 -20.50160 0.00000 0.00000 0.00000 ; imides
2091 2092 2093 2094 3 25.47638 0.00000 -25.47638 0.00000 0.00000 0.00000 ; amides O-C(O)-N-C
2091 2092 2093 2095 3
2091 2092 2093 2096 3
2097 2092 2093 2094 3 20.50160 0.00000 -20.50160 0.00000 0.00000 0.00000 ; amides wlj 6/20/97
2097 2092 2093 2095 3
2097 2092 2093 2096 3
2099 2100 2101 2102 3 33.20422 0.00000 -33.20422 0.00000 0.00000 0.00000 ; methylguanidinium ion
2099 2100 2101 2105 3 20.50160 0.00000 -20.50160 0.00000 0.00000 0.00000 ; imides
2100 2101 2102 2103 3
2100 2101 2102 2104 3
2105 2101 2102 2103 3
2105 2101 2102 2104 3
2107 2108 2109 2110 3 33.20422 0.00000 -33.20422 0.00000 0.00000 0.00000 ; methylguanidinium ion
2107 2108 2109 2113 3 20.50160 0.00000 -20.50160 0.00000 0.00000 0.00000 ; imides
2108 2109 2110 2111 3
2108 2109 2110 2112 3
2113 2109 2110 2111 3
2113 2109 2110 2112 3
2115 2116 2117 2118 3 33.20422 0.00000 -33.20422 0.00000 0.00000 0.00000 ; methylguanidinium ion
2115 2116 2117 2122 3 20.50160 0.00000 -20.50160 0.00000 0.00000 0.00000 ; imides
2116 2117 2118 2119 3 25.47638 0.00000 -25.47638 0.00000 0.00000 0.00000 ; amides O-C(O)-N-C
2116 2117 2118 2120 3
2116 2117 2118 2121 3
2122 2117 2118 2119 3 20.50160 0.00000 -20.50160 0.00000 0.00000 0.00000 ; amides wlj 6/20/97
2122 2117 2118 2120 3
2122 2117 2118 2121 3
2124 2125 2126 2127 3 33.20422 0.00000 -33.20422 0.00000 0.00000 0.00000 ; methylguanidinium ion
2124 2125 2126 2131 3 20.50160 0.00000 -20.50160 0.00000 0.00000 0.00000 ; imides
2125 2126 2127 2128 3 25.47638 0.00000 -25.47638 0.00000 0.00000 0.00000 ; amides O-C(O)-N-C
2125 2126 2127 2129 3
2125 2126 2127 2130 3
2131 2126 2127 2128 3 20.50160 0.00000 -20.50160 0.00000 0.00000 0.00000 ; amides wlj 6/20/97
2131 2126 2127 2129 3
2131 2126 2127 2130 3
2133 2134 2135 2136 3 33.20422 0.00000 -33.20422 0.00000 0.00000 0.00000 ; methylguanidinium ion
2133 2134 2135 2140 3 20.50160 0.00000 -20.50160 0.00000 0.00000 0.00000 ; imides
2134 2135 2136 2137 3 25.47638 0.00000 -25.47638 0.00000 0.00000 0.00000 ; amides O-C(O)-N-C
2134 2135 2136 2138 3
2134 2135 2136 2139 3
2140 2135 2136 2137 3 20.50160 0.00000 -20.50160 0.00000 0.00000 0.00000 ; amides wlj 6/20/97
2140 2135 2136 2138 3
2140 2135 2136 2139 3
2142 2143 2144 2145 3 33.20422 0.00000 -33.20422 0.00000 0.00000 0.00000 ; methylguanidinium ion
2142 2143 2144 2149 3 20.50160 0.00000 -20.50160 0.00000 0.00000 0.00000 ; imides
2143 2144 2145 2146 3 25.47638 0.00000 -25.47638 0.00000 0.00000 0.00000 ; amides O-C(O)-N-C
2143 2144 2145 2147 3
2143 2144 2145 2148 3
2149 2144 2145 2146 3 20.50160 0.00000 -20.50160 0.00000 0.00000 0.00000 ; amides wlj 6/20/97
2149 2144 2145 2147 3
2149 2144 2145 2148 3
2151 2152 2153 2154 3 33.20422 0.00000 -33.20422 0.00000 0.00000 0.00000 ; methylguanidinium ion
2151 2152 2153 2158 3 20.50160 0.00000 -20.50160 0.00000 0.00000 0.00000 ; imides
2152 2153 2154 2155 3 25.47638 0.00000 -25.47638 0.00000 0.00000 0.00000 ; amides O-C(O)-N-C
2152 2153 2154 2156 3
2152 2153 2154 2157 3
2158 2153 2154 2155 3 20.50160 0.00000 -20.50160 0.00000 0.00000 0.00000 ; amides wlj 6/20/97
2158 2153 2154 2156 3
2158 2153 2154 2157 3
2160 2161 2162 2163 3 33.20422 0.00000 -33.20422 0.00000 0.00000 0.00000 ; methylguanidinium ion
2160 2161 2162 2167 3 20.50160 0.00000 -20.50160 0.00000 0.00000 0.00000 ; imides
2161 2162 2163 2164 3 25.47638 0.00000 -25.47638 0.00000 0.00000 0.00000 ; amides O-C(O)-N-C
2161 2162 2163 2165 3
2161 2162 2163 2166 3
2167 2162 2163 2164 3 20.50160 0.00000 -20.50160 0.00000 0.00000 0.00000 ; amides wlj 6/20/97
2167 2162 2163 2165 3
2167 2162 2163 2166 3
2169 2170 2171 2172 3 33.20422 0.00000 -33.20422 0.00000 0.00000 0.00000 ; methylguanidinium ion
2169 2170 2171 2176 3 20.50160 0.00000 -20.50160 0.00000 0.00000 0.00000 ; imides
2170 2171 2172 2173 3 25.47638 0.00000 -25.47638 0.00000 0.00000 0.00000 ; amides O-C(O)-N-C
2170 2171 2172 2174 3
2170 2171 2172 2175 3
2176 2171 2172 2173 3 20.50160 0.00000 -20.50160 0.00000 0.00000 0.00000 ; amides wlj 6/20/97
2176 2171 2172 2174 3
2176 2171 2172 2175 3
2178 2179 2180 2181 3 33.20422 0.00000 -33.20422 0.00000 0.00000 0.00000 ; methylguanidinium ion
2178 2179 2180 2186 3 20.50160 0.00000 -20.50160 0.00000 0.00000 0.00000 ; imides
2179 2180 2181 2182 3 25.47638 0.00000 -25.47638 0.00000 0.00000 0.00000 ; amides O-C(O)-N-C
2179 2180 2181 2184 3
2179 2180 2181 2185 3
2180 2181 2182 2183 3 16.73600 4.18400 -20.92000 0.00000 0.00000 0.00000 ; carbamates
2184 2181 2182 2183 3
2185 2181 2182 2183 3
2186 2180 2181 2182 3 20.50160 0.00000 -20.50160 0.00000 0.00000 0.00000 ; amides wlj 6/20/97
2186 2180 2181 2184 3
2186 2180 2181 2185 3
2188 2189 2190 2191 3 33.20422 0.00000 -33.20422 0.00000 0.00000 0.00000 ; methylguanidinium ion
2188 2189 2190 2195 3 20.50160 0.00000 -20.50160 0.00000 0.00000 0.00000 ; imides
2189 2190 2191 2192 3 25.47638 0.00000 -25.47638 0.00000 0.00000 0.00000 ; amides O-C(O)-N-C
2189 2190 2191 2193 3
2189 2190 2191 2194 3
2195 2190 2191 2192 3 20.50160 0.00000 -20.50160 0.00000 0.00000 0.00000 ; amides wlj 6/20/97
2195 2190 2191 2193 3
2195 2190 2191 2194 3
2197 2198 2199 2200 3 33.20422 0.00000 -33.20422 0.00000 0.00000 0.00000 ; methylguanidinium ion
2197 2198 2199 2204 3 20.50160 0.00000 -20.50160 0.00000 0.00000 0.00000 ; imides
2198 2199 2200 2201 3 25.47638 0.00000 -25.47638 0.00000 0.00000 0.00000 ; amides O-C(O)-N-C
2198 2199 2200 2202 3
2198 2199 2200 2203 3
2204 2199 2200 2201 3 20.50160 0.00000 -20.50160 0.00000 0.00000 0.00000 ; amides wlj 6/20/97
2204 2199 2200 2202 3
2204 2199 2200 2203 3
2206 2207 2208 2209 3 33.20422 0.00000 -33.20422 0.00000 0.00000 0.00000 ; methylguanidinium ion
2206 2207 2208 2213 3 20.50160 0.00000 -20.50160 0.00000 0.00000 0.00000 ; imides
2207 2208 2209 2210 3 25.47638 0.00000 -25.47638 0.00000 0.00000 0.00000 ; amides O-C(O)-N-C
2207 2208 2209 2211 3
2207 2208 2209 2212 3
2213 2208 2209 2210 3 20.50160 0.00000 -20.50160 0.00000 0.00000 0.00000 ; amides wlj 6/20/97
2213 2208 2209 2211 3
2213 2208 2209 2212 3
2215 2216 2217 2218 3 33.20422 0.00000 -33.20422 0.00000 0.00000 0.00000 ; methylguanidinium ion
2215 2216 2217 2223 3 20.50160 0.00000 -20.50160 0.00000 0.00000 0.00000 ; imides
2216 2217 2218 2219 3 25.47638 0.00000 -25.47638 0.00000 0.00000 0.00000 ; amides O-C(O)-N-C
2216 2217 2218 2221 3
2216 2217 2218 2222 3
2217 2218 2219 2220 3 16.73600 4.18400 -20.92000 0.00000 0.00000 0.00000 ; carbamates
2221 2218 2219 2220 3
2222 2218 2219 2220 3
2223 2217 2218 2219 3 20.50160 0.00000 -20.50160 0.00000 0.00000 0.00000 ; amides wlj 6/20/97
2223 2217 2218 2221 3
2223 2217 2218 2222 3
2225 2226 2227 2228 3 33.20422 0.00000 -33.20422 0.00000 0.00000 0.00000 ; methylguanidinium ion
2225 2226 2227 2232 3 20.50160 0.00000 -20.50160 0.00000 0.00000 0.00000 ; imides
2226 2227 2228 2229 3 25.47638 0.00000 -25.47638 0.00000 0.00000 0.00000 ; amides O-C(O)-N-C
2226 2227 2228 2230 3
2226 2227 2228 2231 3
2232 2227 2228 2229 3 20.50160 0.00000 -20.50160 0.00000 0.00000 0.00000 ; amides wlj 6/20/97
2232 2227 2228 2230 3
2232 2227 2228 2231 3
2234 2235 2236 2237 3 33.20422 0.00000 -33.20422 0.00000 0.00000 0.00000 ; methylguanidinium ion
2234 2235 2236 2241 3 20.50160 0.00000 -20.50160 0.00000 0.00000 0.00000 ; imides
2235 2236 2237 2238 3 25.47638 0.00000 -25.47638 0.00000 0.00000 0.00000 ; amides O-C(O)-N-C
2235 2236 2237 2239 3
2235 2236 2237 2240 3
2241 2236 2237 2238 3 20.50160 0.00000 -20.50160 0.00000 0.00000 0.00000 ; amides wlj 6/20/97
2241 2236 2237 2239 3
2241 2236 2237 2240 3
2243 2244 2245 2246 3 33.20422 0.00000 -33.20422 0.00000 0.00000 0.00000 ; methylguanidinium ion
2243 2244 2245 2250 3 20.50160 0.00000 -20.50160 0.00000 0.00000 0.00000 ; imides
2244 2245 2246 2247 3 25.47638 0.00000 -25.47638 0.00000 0.00000 0.00000 ; amides O-C(O)-N-C
2244 2245 2246 2248 3
2244 2245 2246 2249 3
2250 2245 2246 2247 3 20.50160 0.00000 -20.50160 0.00000 0.00000 0.00000 ; amides wlj 6/20/97
2250 2245 2246 2248 3
2250 2245 2246 2249 3
2252 2253 2254 2255 3 33.20422 0.00000 -33.20422 0.00000 0.00000 0.00000 ; methylguanidinium ion
2252 2253 2254 2259 3 20.50160 0.00000 -20.50160 0.00000 0.00000 0.00000 ; imides
2253 2254 2255 2256 3 25.47638 0.00000 -25.47638 0.00000 0.00000 0.00000 ; amides O-C(O)-N-C
2253 2254 2255 2257 3
2253 2254 2255 2258 3
2259 2254 2255 2256 3 20.50160 0.00000 -20.50160 0.00000 0.00000 0.00000 ; amides wlj 6/20/97
2259 2254 2255 2257 3
2259 2254 2255 2258 3
2261 2262 2263 2264 3 33.20422 0.00000 -33.20422 0.00000 0.00000 0.00000 ; methylguanidinium ion
2261 2262 2263 2268 3 20.50160 0.00000 -20.50160 0.00000 0.00000 0.00000 ; imides
2262 2263 2264 2265 3 25.47638 0.00000 -25.47638 0.00000 0.00000 0.00000 ; amides O-C(O)-N-C
2262 2263 2264 2266 3
2262 2263 2264 2267 3
2268 2263 2264 2265 3 20.50160 0.00000 -20.50160 0.00000 0.00000 0.00000 ; amides wlj 6/20/97
2268 2263 2264 2266 3
2268 2263 2264 2267 3
2270 2271 2272 2273 3 33.20422 0.00000 -33.20422 0.00000 0.00000 0.00000 ; methylguanidinium ion
2270 2271 2272 2277 3 20.50160 0.00000 -20.50160 0.00000 0.00000 0.00000 ; imides
2271 2272 2273 2274 3 25.47638 0.00000 -25.47638 0.00000 0.00000 0.00000 ; amides O-C(O)-N-C
2271 2272 2273 2275 3
2271 2272 2273 2276 3
2277 2272 2273 2274 3 20.50160 0.00000 -20.50160 0.00000 0.00000 0.00000 ; amides wlj 6/20/97
2277 2272 2273 2275 3
2277 2272 2273 2276 3
2279 2280 2281 2282 3 33.20422 0.00000 -33.20422 0.00000 0.00000 0.00000 ; methylguanidinium ion
2279 2280 2281 2286 3 20.50160 0.00000 -20.50160 0.00000 0.00000 0.00000 ; imides
2280 2281 2282 2283 3 25.47638 0.00000 -25.47638 0.00000 0.00000 0.00000 ; amides O-C(O)-N-C
2280 2281 2282 2284 3
2280 2281 2282 2285 3
2286 2281 2282 2283 3 20.50160 0.00000 -20.50160 0.00000 0.00000 0.00000 ; amides wlj 6/20/97
2286 2281 2282 2284 3
2286 2281 2282 2285 3
2288 2289 2290 2291 3 33.20422 0.00000 -33.20422 0.00000 0.00000 0.00000 ; methylguanidinium ion
2288 2289 2290 2295 3 20.50160 0.00000 -20.50160 0.00000 0.00000 0.00000 ; imides
2289 2290 2291 2292 3 25.47638 0.00000 -25.47638 0.00000 0.00000 0.00000 ; amides O-C(O)-N-C
2289 2290 2291 2293 3
2289 2290 2291 2294 3
2295 2290 2291 2292 3 20.50160 0.00000 -20.50160 0.00000 0.00000 0.00000 ; amides wlj 6/20/97
2295 2290 2291 2293 3
2295 2290 2291 2294 3
2297 2298 2299 2300 3 33.20422 0.00000 -33.20422 0.00000 0.00000 0.00000 ; methylguanidinium ion
2297 2298 2299 2304 3 20.50160 0.00000 -20.50160 0.00000 0.00000 0.00000 ; imides
2298 2299 2300 2301 3 25.47638 0.00000 -25.47638 0.00000 0.00000 0.00000 ; amides O-C(O)-N-C
2298 2299 2300 2302 3
2298 2299 2300 2303 3
2304 2299 2300 2301 3 20.50160 0.00000 -20.50160 0.00000 0.00000 0.00000 ; amides wlj 6/20/97
2304 2299 2300 2302 3
2304 2299 2300 2303 3
2306 2307 2308 2309 3 33.20422 0.00000 -33.20422 0.00000 0.00000 0.00000 ; methylguanidinium ion
2306 2307 2308 2313 3 20.50160 0.00000 -20.50160 0.00000 0.00000 0.00000 ; imides
2307 2308 2309 2310 3 25.47638 0.00000 -25.47638 0.00000 0.00000 0.00000 ; amides O-C(O)-N-C
2307 2308 2309 2311 3
2307 2308 2309 2312 3
2313 2308 2309 2310 3 20.50160 0.00000 -20.50160 0.00000 0.00000 0.00000 ; amides wlj 6/20/97
2313 2308 2309 2311 3
2313 2308 2309 2312 3
2315 2316 2317 2318 3 33.20422 0.00000 -33.20422 0.00000 0.00000 0.00000 ; methylguanidinium ion
2315 2316 2317 2322 3 20.50160 0.00000 -20.50160 0.00000 0.00000 0.00000 ; imides
2316 2317 2318 2319 3 25.47638 0.00000 -25.47638 0.00000 0.00000 0.00000 ; amides O-C(O)-N-C
2316 2317 2318 2320 3
2316 2317 2318 2321 3
2322 2317 2318 2319 3 20.50160 0.00000 -20.50160 0.00000 0.00000 0.00000 ; amides wlj 6/20/97
2322 2317 2318 2320 3
2322 2317 2318 2321 3
2324 2325 2326 2327 3 33.20422 0.00000 -33.20422 0.00000 0.00000 0.00000 ; methylguanidinium ion
2324 2325 2326 2331 3 20.50160 0.00000 -20.50160 0.00000 0.00000 0.00000 ; imides
2325 2326 2327 2328 3 25.47638 0.00000 -25.47638 0.00000 0.00000 0.00000 ; amides O-C(O)-N-C
2325 2326 2327 2329 3
2325 2326 2327 2330 3
2331 2326 2327 2328 3 20.50160 0.00000 -20.50160 0.00000 0.00000 0.00000 ; amides wlj 6/20/97
2331 2326 2327 2329 3
2331 2326 2327 2330 3
2333 2334 2335 2336 3 33.20422 0.00000 -33.20422 0.00000 0.00000 0.00000 ; methylguanidinium ion
2333 2334 2335 2340 3 20.50160 0.00000 -20.50160 0.00000 0.00000 0.00000 ; imides
2334 2335 2336 2337 3 25.47638 0.00000 -25.47638 0.00000 0.00000 0.00000 ; amides O-C(O)-N-C
2334 2335 2336 2338 3
2334 2335 2336 2339 3
2340 2335 2336 2337 3 20.50160 0.00000 -20.50160 0.00000 0.00000 0.00000 ; amides wlj 6/20/97
2340 2335 2336 2338 3
2340 2335 2336 2339 3
2342 2343 2344 2345 3 33.20422 0.00000 -33.20422 0.00000 0.00000 0.00000 ; methylguanidinium ion
2342 2343 2344 2349 3 20.50160 0.00000 -20.50160 0.00000 0.00000 0.00000 ; imides
2343 2344 2345 2346 3 25.47638 0.00000 -25.47638 0.00000 0.00000 0.00000 ; amides O-C(O)-N-C
2343 2344 2345 2347 3
2343 2344 2345 2348 3
2349 2344 2345 2346 3 20.50160 0.00000 -20.50160 0.00000 0.00000 0.00000 ; amides wlj 6/20/97
2349 2344 2345 2347 3
2349 2344 2345 2348 3
2351 2352 2353 2354 3 33.20422 0.00000 -33.20422 0.00000 0.00000 0.00000 ; methylguanidinium ion
2351 2352 2353 2359 3 20.50160 0.00000 -20.50160 0.00000 0.00000 0.00000 ; imides
2352 2353 2354 2355 3 25.47638 0.00000 -25.47638 0.00000 0.00000 0.00000 ; amides O-C(O)-N-C
2352 2353 2354 2357 3
2352 2353 2354 2358 3
2353 2354 2355 2356 3 16.73600 4.18400 -20.92000 0.00000 0.00000 0.00000 ; carbamates
2357 2354 2355 2356 3
2358 2354 2355 2356 3
2359 2353 2354 2355 3 20.50160 0.00000 -20.50160 0.00000 0.00000 0.00000 ; amides wlj 6/20/97
2359 2353 2354 2357 3
2359 2353 2354 2358 3
2361 2362 2363 2364 3 33.20422 0.00000 -33.20422 0.00000 0.00000 0.00000 ; methylguanidinium ion
2361 2362 2363 2367 3 20.50160 0.00000 -20.50160 0.00000 0.00000 0.00000 ; imides
2362 2363 2364 2365 3
2362 2363 2364 2366 3
2367 2363 2364 2365 3
2367 2363 2364 2366 3
2369 2370 2371 2372 3 33.20422 0.00000 -33.20422 0.00000 0.00000 0.00000 ; methylguanidinium ion
2369 2370 2371 2376 3 20.50160 0.00000 -20.50160 0.00000 0.00000 0.00000 ; imides
2370 2371 2372 2373 3 25.47638 0.00000 -25.47638 0.00000 0.00000 0.00000 ; amides O-C(O)-N-C
2370 2371 2372 2374 3
2370 2371 2372 2375 3
2376 2371 2372 2373 3 20.50160 0.00000 -20.50160 0.00000 0.00000 0.00000 ; amides wlj 6/20/97
2376 2371 2372 2374 3
2376 2371 2372 2375 3
2378 2379 2380 2381 3 33.20422 0.00000 -33.20422 0.00000 0.00000 0.00000 ; methylguanidinium ion
2378 2379 2380 2385 3 20.50160 0.00000 -20.50160 0.00000 0.00000 0.00000 ; imides
2379 2380 2381 2382 3 25.47638 0.00000 -25.47638 0.00000 0.00000 0.00000 ; amides O-C(O)-N-C
2379 2380 2381 2383 3
2379 2380 2381 2384 3
2385 2380 2381 2382 3 20.50160 0.00000 -20.50160 0.00000 0.00000 0.00000 ; amides wlj 6/20/97
2385 2380 2381 2383 3
2385 2380 2381 2384 3
2387 2388 2389 2390 3 33.20422 0.00000 -33.20422 0.00000 0.00000 0.00000 ; methylguanidinium ion
2387 2388 2389 2394 3 20.50160 0.00000 -20.50160 0.00000 0.00000 0.00000 ; imides
2388 2389 2390 2391 3 25.47638 0.00000 -25.47638 0.00000 0.00000 0.00000 ; amides O-C(O)-N-C
2388 2389 2390 2392 3
2388 2389 2390 2393 3
2394 2389 2390 2391 3 20.50160 0.00000 -20.50160 0.00000 0.00000 0.00000 ; amides wlj 6/20/97
2394 2389 2390 2392 3
2394 2389 2390 2393 3
2396 2397 2398 2399 3 33.20422 0.00000 -33.20422 0.00000 0.00000 0.00000 ; methylguanidinium ion
2396 2397 2398 2403 3 20.50160 0.00000 -20.50160 0.00000 0.00000 0.00000 ; imides
2397 2398 2399 2400 3 25.47638 0.00000 -25.47638 0.00000 0.00000 0.00000 ; amides O-C(O)-N-C
2397 2398 2399 2401 3
2397 2398 2399 2402 3
2403 2398 2399 2400 3 20.50160 0.00000 -20.50160 0.00000 0.00000 0.00000 ; amides wlj 6/20/97
2403 2398 2399 2401 3
2403 2398 2399 2402 3
2405 2406 2407 2408 3 33.20422 0.00000 -33.20422 0.00000 0.00000 0.00000 ; methylguanidinium ion
2405 2406 2407 2412 3 20.50160 0.00000 -20.50160 0.00000 0.00000 0.00000 ; imides
2406 2407 2408 2409 3 25.47638 0.00000 -25.47638 0.00000 0.00000 0.00000 ; amides O-C(O)-N-C
2406 2407 2408 2410 3
2406 2407 2408 2411 3
2412 2407 2408 2409 3 20.50160 0.00000 -20.50160 0.00000 0.00000 0.00000 ; amides wlj 6/20/97
2412 2407 2408 2410 3
2412 2407 2408 2411 3
2414 2415 2416 2417 3 33.20422 0.00000 -33.20422 0.00000 0.00000 0.00000 ; methylguanidinium ion
2414 2415 2416 2421 3 20.50160 0.00000 -20.50160 0.00000 0.00000 0.00000 ; imides
2415 2416 2417 2418 3 25.47638 0.00000 -25.47638 0.00000 0.00000 0.00000 ; amides O-C(O)-N-C
2415 2416 2417 2419 3
2415 2416 2417 2420 3
2421 2416 2417 2418 3 20.50160 0.00000 -20.50160 0.00000 0.00000 0.00000 ; amides wlj 6/20/97
2421 2416 2417 2419 3
2421 2416 2417 2420 3
2423 2424 2425 2426 3 33.20422 0.00000 -33.20422 0.00000 0.00000 0.00000 ; methylguanidinium ion
2423 2424 2425 2429 3 20.50160 0.00000 -20.50160 0.00000 0.00000 0.00000 ; imides
2424 2425 2426 2427 3
2424 2425 2426 2428 3
2429 2425 2426 2427 3
2429 2425 2426 2428 3
2431 2432 2433 2434 3 33.20422 0.00000 -33.20422 0.00000 0.00000 0.00000 ; methylguanidinium ion
2431 2432 2433 2438 3 20.50160 0.00000 -20.50160 0.00000 0.00000 0.00000 ; imides
2432 2433 2434 2435 3 25.47638 0.00000 -25.47638 0.00000 0.00000 0.00000 ; amides O-C(O)-N-C
2432 2433 2434 2436 3
2432 2433 2434 2437 3
2438 2433 2434 2435 3 20.50160 0.00000 -20.50160 0.00000 0.00000 0.00000 ; amides wlj 6/20/97
2438 2433 2434 2436 3
2438 2433 2434 2437 3
2440 2441 2442 2443 3 33.20422 0.00000 -33.20422 0.00000 0.00000 0.00000 ; methylguanidinium ion
2440 2441 2442 2448 3 20.50160 0.00000 -20.50160 0.00000 0.00000 0.00000 ; imides
2441 2442 2443 2444 3 25.47638 0.00000 -25.47638 0.00000 0.00000 0.00000 ; amides O-C(O)-N-C
2441 2442 2443 2446 3
2441 2442 2443 2447 3
2442 2443 2444 2445 3 16.73600 4.18400 -20.92000 0.00000 0.00000 0.00000 ; carbamates
2446 2443 2444 2445 3
2447 2443 2444 2445 3
2448 2442 2443 2444 3 20.50160 0.00000 -20.50160 0.00000 0.00000 0.00000 ; amides wlj 6/20/97
2448 2442 2443 2446 3
2448 2442 2443 2447 3
2450 2451 2452 2453 3 33.20422 0.00000 -33.20422 0.00000 0.00000 0.00000 ; methylguanidinium ion
2450 2451 2452 2457 3 20.50160 0.00000 -20.50160 0.00000 0.00000 0.00000 ; imides
2451 2452 2453 2454 3 25.47638 0.00000 -25.47638 0.00000 0.00000 0.00000 ; amides O-C(O)-N-C
2451 2452 2453 2455 3
2451 2452 2453 2456 3
2457 2452 2453 2454 3 20.50160 0.00000 -20.50160 0.00000 0.00000 0.00000 ; amides wlj 6/20/97
2457 2452 2453 2455 3
2457 2452 2453 2456 3
2459 2460 2461 2462 3 33.20422 0.00000 -33.20422 0.00000 0.00000 0.00000 ; methylguanidinium ion
2459 2460 2461 2466 3 20.50160 0.00000 -20.50160 0.00000 0.00000 0.00000 ; imides
2460 2461 2462 2463 3 25.47638 0.00000 -25.47638 0.00000 0.00000 0.00000 ; amides O-C(O)-N-C
2460 2461 2462 2464 3
2460 2461 2462 2465 3
2466 2461 2462 2463 3 20.50160 0.00000 -20.50160 0.00000 0.00000 0.00000 ; amides wlj 6/20/97
2466 2461 2462 2464 3
2466 2461 2462 2465 3
2468 2469 2470 2471 3 33.20422 0.00000 -33.20422 0.00000 0.00000 0.00000 ; methylguanidinium ion
2468 2469 2470 2474 3 20.50160 0.00000 -20.50160 0.00000 0.00000 0.00000 ; imides
2469 2470 2471 2472 3
2469 2470 2471 2473 3
2474 2470 2471 2472 3
2474 2470 2471 2473 3
2476 2477 2478 2479 3 33.20422 0.00000 -33.20422 0.00000 0.00000 0.00000 ; methylguanidinium ion
2476 2477 2478 2483 3 20.50160 0.00000 -20.50160 0.00000 0.00000 0.00000 ; imides
2477 2478 2479 2480 3 25.47638 0.00000 -25.47638 0.00000 0.00000 0.00000 ; amides O-C(O)-N-C
2477 2478 2479 2481 3
2477 2478 2479 2482 3
2483 2478 2479 2480 3 20.50160 0.00000 -20.50160 0.00000 0.00000 0.00000 ; amides wlj 6/20/97
2483 2478 2479 2481 3
2483 2478 2479 2482 3
2485 2486 2487 2488 3 33.20422 0.00000 -33.20422 0.00000 0.00000 0.00000 ; methylguanidinium ion
2485 2486 2487 2492 3 20.50160 0.00000 -20.50160 0.00000 0.00000 0.00000 ; imides
2486 2487 2488 2489 3 25.47638 0.00000 -25.47638 0.00000 0.00000 0.00000 ; amides O-C(O)-N-C
2486 2487 2488 2490 3
2486 2487 2488 2491 3
2492 2487 2488 2489 3 20.50160 0.00000 -20.50160 0.00000 0.00000 0.00000 ; amides wlj 6/20/97
2492 2487 2488 2490 3
2492 2487 2488 2491 3
2494 2495 2496 2497 3 33.20422 0.00000 -33.20422 0.00000 0.00000 0.00000 ; methylguanidinium ion
2494 2495 2496 2501 3 20.50160 0.00000 -20.50160 0.00000 0.00000 0.00000 ; imides
2495 2496 2497 2498 3 25.47638 0.00000 -25.47638 0.00000 0.00000 0.00000 ; amides O-C(O)-N-C
2495 2496 2497 2499 3
2495 2496 2497 2500 3
2501 2496 2497 2498 3 20.50160 0.00000 -20.50160 0.00000 0.00000 0.00000 ; amides wlj 6/20/97
2501 2496 2497 2499 3
2501 2496 2497 2500 3
2503 2504 2505 2506 3 33.20422 0.00000 -33.20422 0.00000 0.00000 0.00000 ; methylguanidinium ion
2503 2504 2505 2510 3 20.50160 0.00000 -20.50160 0.00000 0.00000 0.00000 ; imides
2504 2505 2506 2507 3 25.47638 0.00000 -25.47638 0.00000 0.00000 0.00000 ; amides O-C(O)-N-C
2504 2505 2506 2508 3
2504 2505 2506 2509 3
2510 2505 2506 2507 3 20.50160 0.00000 -20.50160 0.00000 0.00000 0.00000 ; amides wlj 6/20/97
2510 2505 2506 2508 3
2510 2505 2506 2509 3
2512 2513 2514 2515 3 33.20422 0.00000 -33.20422 0.00000 0.00000 0.00000 ; methylguanidinium ion
2512 2513 2514 2519 3 20.50160 0.00000 -20.50160 0.00000 0.00000 0.00000 ; imides
2513 2514 2515 2516 3 25.47638 0.00000 -25.47638 0.00000 0.00000 0.00000 ; amides O-C(O)-N-C
2513 2514 2515 2517 3
2513 2514 2515 2518 3
2519 2514 2515 2516 3 20.50160 0.00000 -20.50160 0.00000 0.00000 0.00000 ; amides wlj 6/20/97
2519 2514 2515 2517 3
2519 2514 2515 2518 3
2521 2522 2523 2524 3 33.20422 0.00000 -33.20422 0.00000 0.00000 0.00000 ; methylguanidinium ion
2521 2522 2523 2528 3 20.50160 0.00000 -20.50160 0.00000 0.00000 0.00000 ; imides
2522 2523 2524 2525 3 25.47638 0.00000 -25.47638 0.00000 0.00000 0.00000 ; amides O-C(O)-N-C
2522 2523 2524 2526 3
2522 2523 2524 2527 3
2528 2523 2524 2525 3 20.50160 0.00000 -20.50160 0.00000 0.00000 0.00000 ; amides wlj 6/20/97
2528 2523 2524 2526 3
2528 2523 2524 2527 3
2530 2531 2532 2533 3 33.20422 0.00000 -33.20422 0.00000 0.00000 0.00000 ; methylguanidinium ion
2530 2531 2532 2536 3 20.50160 0.00000 -20.50160 0.00000 0.00000 0.00000 ; imides
2531 2532 2533 2534 3
2531 2532 2533 2535 3
2536 2532 2533 2534 3
2536 2532 2533 2535 3
2538 2539 2540 2541 3 33.20422 0.00000 -33.20422 0.00000 0.00000 0.00000 ; methylguanidinium ion
2538 2539 2540 2545 3 20.50160 0.00000 -20.50160 0.00000 0.00000 0.00000 ; imides
2539 2540 2541 2542 3 25.47638 0.00000 -25.47638 0.00000 0.00000 0.00000 ; amides O-C(O)-N-C
2539 2540 2541 2543 3
2539 2540 2541 2544 3
2545 2540 2541 2542 3 20.50160 0.00000 -20.50160 0.00000 0.00000 0.00000 ; amides wlj 6/20/97
2545 2540 2541 2543 3
2545 2540 2541 2544 3
2547 2548 2549 2550 3 33.20422 0.00000 -33.20422 0.00000 0.00000 0.00000 ; methylguanidinium ion
2547 2548 2549 2554 3 20.50160 0.00000 -20.50160 0.00000 0.00000 0.00000 ; imides
2548 2549 2550 2551 3 25.47638 0.00000 -25.47638 0.00000 0.00000 0.00000 ; amides O-C(O)-N-C
2548 2549 2550 2552 3
2548 2549 2550 2553 3
2554 2549 2550 2551 3 20.50160 0.00000 -20.50160 0.00000 0.00000 0.00000 ; amides wlj 6/20/97
2554 2549 2550 2552 3
2554 2549 2550 2553 3
2556 2557 2558 2559 3 33.20422 0.00000 -33.20422 0.00000 0.00000 0.00000 ; methylguanidinium ion
2556 2557 2558 2563 3 20.50160 0.00000 -20.50160 0.00000 0.00000 0.00000 ; imides
2557 2558 2559 2560 3 25.47638 0.00000 -25.47638 0.00000 0.00000 0.00000 ; amides O-C(O)-N-C
2557 2558 2559 2561 3
2557 2558 2559 2562 3
2563 2558 2559 2560 3 20.50160 0.00000 -20.50160 0.00000 0.00000 0.00000 ; amides wlj 6/20/97
2563 2558 2559 2561 3
2563 2558 2559 2562 3
2565 2566 2567 2568 3 33.20422 0.00000 -33.20422 0.00000 0.00000 0.00000 ; methylguanidinium ion
2565 2566 2567 2572 3 20.50160 0.00000 -20.50160 0.00000 0.00000 0.00000 ; imides
2566 2567 2568 2569 3 25.47638 0.00000 -25.47638 0.00000 0.00000 0.00000 ; amides O-C(O)-N-C
2566 2567 2568 2570 3
2566 2567 2568 2571 3
2572 2567 2568 2569 3 20.50160 0.00000 -20.50160 0.00000 0.00000 0.00000 ; amides wlj 6/20/97
2572 2567 2568 2570 3
2572 2567 2568 2571 3
2574 2575 2576 2577 3 33.20422 0.00000 -33.20422 0.00000 0.00000 0.00000 ; methylguanidinium ion
2574 2575 2576 2582 3 20.50160 0.00000 -20.50160 0.00000 0.00000 0.00000 ; imides
2575 2576 2577 2578 3 25.47638 0.00000 -25.47638 0.00000 0.00000 0.00000 ; amides O-C(O)-N-C
2575 2576 2577 2580 3
2575 2576 2577 2581 3
2576 2577 2578 2579 3 16.73600 4.18400 -20.92000 0.00000 0.00000 0.00000 ; carbamates
2580 2577 2578 2579 3
2581 2577 2578 2579 3
2582 2576 2577 2578 3 20.50160 0.00000 -20.50160 0.00000 0.00000 0.00000 ; amides wlj 6/20/97
2582 2576 2577 2580 3
2582 2576 2577 2581 3
2584 2585 2586 2587 3 33.20422 0.00000 -33.20422 0.00000 0.00000 0.00000 ; methylguanidinium ion
2584 2585 2586 2592 3 20.50160 0.00000 -20.50160 0.00000 0.00000 0.00000 ; imides
2585 2586 2587 2588 3 25.47638 0.00000 -25.47638 0.00000 0.00000 0.00000 ; amides O-C(O)-N-C
2585 2586 2587 2590 3
2585 2586 2587 2591 3
2586 2587 2588 2589 3 16.73600 4.18400 -20.92000 0.00000 0.00000 0.00000 ; carbamates
2590 2587 2588 2589 3
2591 2587 2588 2589 3
2592 2586 2587 2588 3 20.50160 0.00000 -20.50160 0.00000 0.00000 0.00000 ; amides wlj 6/20/97
2592 2586 2587 2590 3
2592 2586 2587 2591 3
2594 2595 2596 2597 3 33.20422 0.00000 -33.20422 0.00000 0.00000 0.00000 ; methylguanidinium ion
2594 2595 2596 2601 3 20.50160 0.00000 -20.50160 0.00000 0.00000 0.00000 ; imides
2595 2596 2597 2598 3 25.47638 0.00000 -25.47638 0.00000 0.00000 0.00000 ; amides O-C(O)-N-C
2595 2596 2597 2599 3
2595 2596 2597 2600 3
2601 2596 2597 2598 3 20.50160 0.00000 -20.50160 0.00000 0.00000 0.00000 ; amides wlj 6/20/97
2601 2596 2597 2599 3
2601 2596 2597 2600 3
2603 2604 2605 2606 3 33.20422 0.00000 -33.20422 0.00000 0.00000 0.00000 ; methylguanidinium ion
2603 2604 2605 2610 3 20.50160 0.00000 -20.50160 0.00000 0.00000 0.00000 ; imides
2604 2605 2606 2607 3 25.47638 0.00000 -25.47638 0.00000 0.00000 0.00000 ; amides O-C(O)-N-C
2604 2605 2606 2608 3
2604 2605 2606 2609 3
2610 2605 2606 2607 3 20.50160 0.00000 -20.50160 0.00000 0.00000 0.00000 ; amides wlj 6/20/97
2610 2605 2606 2608 3
2610 2605 2606 2609 3
2612 2613 2614 2615 3 33.20422 0.00000 -33.20422 0.00000 0.00000 0.00000 ; methylguanidinium ion
2612 2613 2614 2619 3 20.50160 0.00000 -20.50160 0.00000 0.00000 0.00000 ; imides
2613 2614 2615 2616 3 25.47638 0.00000 -25.47638 0.00000 0.00000 0.00000 ; amides O-C(O)-N-C
2613 2614 2615 2617 3
2613 2614 2615 2618 3
2619 2614 2615 2616 3 20.50160 0.00000 -20.50160 0.00000 0.00000 0.00000 ; amides wlj 6/20/97
2619 2614 2615 2617 3
2619 2614 2615 2618 3
2621 2622 2623 2624 3 33.20422 0.00000 -33.20422 0.00000 0.00000 0.00000 ; methylguanidinium ion
2621 2622 2623 2628 3 20.50160 0.00000 -20.50160 0.00000 0.00000 0.00000 ; imides
2622 2623 2624 2625 3 25.47638 0.00000 -25.47638 0.00000 0.00000 0.00000 ; amides O-C(O)-N-C
2622 2623 2624 2626 3
2622 2623 2624 2627 3
2628 2623 2624 2625 3 20.50160 0.00000 -20.50160 0.00000 0.00000 0.00000 ; amides wlj 6/20/97
2628 2623 2624 2626 3
2628 2623 2624 2627 3
2630 2631 2632 2633 3 33.20422 0.00000 -33.20422 0.00000 0.00000 0.00000 ; methylguanidinium ion
2630 2631 2632 2636 3 20.50160 0.00000 -20.50160 0.00000 0.00000 0.00000 ; imides
2631 2632 2633 2634 3
2631 2632 2633 2635 3
2636 2632 2633 2634 3
2636 2632 2633 2635 3
2638 2639 2640 2641 3 33.20422 0.00000 -33.20422 0.00000 0.00000 0.00000 ; methylguanidinium ion
2638 2639 2640 2645 3 20.50160 0.00000 -20.50160 0.00000 0.00000 0.00000 ; imides
2639 2640 2641 2642 3 25.47638 0.00000 -25.47638 0.00000 0.00000 0.00000 ; amides O-C(O)-N-C
2639 2640 2641 2643 3
2639 2640 2641 2644 3
2645 2640 2641 2642 3 20.50160 0.00000 -20.50160 0.00000 0.00000 0.00000 ; amides wlj 6/20/97
2645 2640 2641 2643 3
2645 2640 2641 2644 3
2647 2648 2649 2650 3 33.20422 0.00000 -33.20422 0.00000 0.00000 0.00000 ; methylguanidinium ion
2647 2648 2649 2654 3 20.50160 0.00000 -20.50160 0.00000 0.00000 0.00000 ; imides
2648 2649 2650 2651 3 25.47638 0.00000 -25.47638 0.00000 0.00000 0.00000 ; amides O-C(O)-N-C
2648 2649 2650 2652 3
2648 2649 2650 2653 3
2654 2649 2650 2651 3 20.50160 0.00000 -20.50160 0.00000 0.00000 0.00000 ; amides wlj 6/20/97
2654 2649 2650 2652 3
2654 2649 2650 2653 3
2656 2657 2658 2659 3 33.20422 0.00000 -33.20422 0.00000 0.00000 0.00000 ; methylguanidinium ion
2656 2657 2658 2663 3 20.50160 0.00000 -20.50160 0.00000 0.00000 0.00000 ; imides
2657 2658 2659 2660 3 25.47638 0.00000 -25.47638 0.00000 0.00000 0.00000 ; amides O-C(O)-N-C
2657 2658 2659 2661 3
2657 2658 2659 2662 3
2663 2658 2659 2660 3 20.50160 0.00000 -20.50160 0.00000 0.00000 0.00000 ; amides wlj 6/20/97
2663 2658 2659 2661 3
2663 2658 2659 2662 3
2665 2666 2667 2668 3 33.20422 0.00000 -33.20422 0.00000 0.00000 0.00000 ; methylguanidinium ion
2665 2666 2667 2672 3 20.50160 0.00000 -20.50160 0.00000 0.00000 0.00000 ; imides
2666 2667 2668 2669 3 25.47638 0.00000 -25.47638 0.00000 0.00000 0.00000 ; amides O-C(O)-N-C
2666 2667 2668 2670 3
2666 2667 2668 2671 3
2672 2667 2668 2669 3 20.50160 0.00000 -20.50160 0.00000 0.00000 0.00000 ; amides wlj 6/20/97
2672 2667 2668 2670 3
2672 2667 2668 2671 3
2674 2675 2676 2677 3 33.20422 0.00000 -33.20422 0.00000 0.00000 0.00000 ; methylguanidinium ion
2674 2675 2676 2682 3 20.50160 0.00000 -20.50160 0.00000 0.00000 0.00000 ; imides
2675 2676 2677 2678 3 25.47638 0.00000 -25.47638 0.00000 0.00000 0.00000 ; amides O-C(O)-N-C
2675 2676 2677 2680 3
2675 2676 2677 2681 3
2676 2677 2678 2679 3 16.73600 4.18400 -20.92000 0.00000 0.00000 0.00000 ; carbamates
2680 2677 2678 2679 3
2681 2677 2678 2679 3
2682 2676 2677 2678 3 20.50160 0.00000 -20.50160 0.00000 0.00000 0.00000 ; amides wlj 6/20/97
2682 2676 2677 2680 3
2682 2676 2677 2681 3
2684 2685 2686 2687 3 33.20422 0.00000 -33.20422 0.00000 0.00000 0.00000 ; methylguanidinium ion
2684 2685 2686 2691 3 20.50160 0.00000 -20.50160 0.00000 0.00000 0.00000 ; imides
2685 2686 2687 2688 3 25.47638 0.00000 -25.47638 0.00000 0.00000 0.00000 ; amides O-C(O)-N-C
2685 2686 2687 2689 3
2685 2686 2687 2690 3
2691 2686 2687 2688 3 20.50160 0.00000 -20.50160 0.00000 0.00000 0.00000 ; amides wlj 6/20/97
2691 2686 2687 2689 3
2691 2686 2687 2690 3
2693 2694 2695 2696 3 33.20422 0.00000 -33.20422 0.00000 0.00000 0.00000 ; methylguanidinium ion
2693 2694 2695 2699 3 20.50160 0.00000 -20.50160 0.00000 0.00000 0.00000 ; imides
2694 2695 2696 2697 3
2694 2695 2696 2698 3
2699 2695 2696 2697 3
2699 2695 2696 2698 3
2701 2702 2703 2704 3 33.20422 0.00000 -33.20422 0.00000 0.00000 0.00000 ; methylguanidinium ion
2701 2702 2703 2707 3 20.50160 0.00000 -20.50160 0.00000 0.00000 0.00000 ; imides
2702 2703 2704 2705 3
2702 2703 2704 2706 3
2707 2703 2704 2705 3
2707 2703 2704 2706 3
2709 2710 2711 2712 3 33.20422 0.00000 -33.20422 0.00000 0.00000 0.00000 ; methylguanidinium ion
2709 2710 2711 2716 3 20.50160 0.00000 -20.50160 0.00000 0.00000 0.00000 ; imides
2710 2711 2712 2713 3 25.47638 0.00000 -25.47638 0.00000 0.00000 0.00000 ; amides O-C(O)-N-C
2710 2711 2712 2714 3
2710 2711 2712 2715 3
2716 2711 2712 2713 3 20.50160 0.00000 -20.50160 0.00000 0.00000 0.00000 ; amides wlj 6/20/97
2716 2711 2712 2714 3
2716 2711 2712 2715 3
2718 2719 2720 2721 3 33.20422 0.00000 -33.20422 0.00000 0.00000 0.00000 ; methylguanidinium ion
2718 2719 2720 2725 3 20.50160 0.00000 -20.50160 0.00000 0.00000 0.00000 ; imides
2719 2720 2721 2722 3 25.47638 0.00000 -25.47638 0.00000 0.00000 0.00000 ; amides O-C(O)-N-C
2719 2720 2721 2723 3
2719 2720 2721 2724 3
2725 2720 2721 2722 3 20.50160 0.00000 -20.50160 0.00000 0.00000 0.00000 ; amides wlj 6/20/97
2725 2720 2721 2723 3
2725 2720 2721 2724 3
2727 2728 2729 2730 3 33.20422 0.00000 -33.20422 0.00000 0.00000 0.00000 ; methylguanidinium ion
2727 2728 2729 2733 3 20.50160 0.00000 -20.50160 0.00000 0.00000 0.00000 ; imides
2728 2729 2730 2731 3
2728 2729 2730 2732 3
2733 2729 2730 2731 3
2733 2729 2730 2732 3
2735 2736 2737 2738 3 33.20422 0.00000 -33.20422 0.00000 0.00000 0.00000 ; methylguanidinium ion
2735 2736 2737 2742 3 20.50160 0.00000 -20.50160 0.00000 0.00000 0.00000 ; imides
2736 2737 2738 2739 3 25.47638 0.00000 -25.47638 0.00000 0.00000 0.00000 ; amides O-C(O)-N-C
2736 2737 2738 2740 3
2736 2737 2738 2741 3
2742 2737 2738 2739 3 20.50160 0.00000 -20.50160 0.00000 0.00000 0.00000 ; amides wlj 6/20/97
2742 2737 2738 2740 3
2742 2737 2738 2741 3
2744 2745 2746 2747 3 33.20422 0.00000 -33.20422 0.00000 0.00000 0.00000 ; methylguanidinium ion
2744 2745 2746 2751 3 20.50160 0.00000 -20.50160 0.00000 0.00000 0.00000 ; imides
2745 2746 2747 2748 3 25.47638 0.00000 -25.47638 0.00000 0.00000 0.00000 ; amides O-C(O)-N-C
2745 2746 2747 2749 3
2745 2746 2747 2750 3
2751 2746 2747 2748 3 20.50160 0.00000 -20.50160 0.00000 0.00000 0.00000 ; amides wlj 6/20/97
2751 2746 2747 2749 3
2751 2746 2747 2750 3
2753 2754 2755 2756 3 33.20422 0.00000 -33.20422 0.00000 0.00000 0.00000 ; methylguanidinium ion
2753 2754 2755 2761 3 20.50160 0.00000 -20.50160 0.00000 0.00000 0.00000 ; imides
2754 2755 2756 2757 3 25.47638 0.00000 -25.47638 0.00000 0.00000 0.00000 ; amides O-C(O)-N-C
2754 2755 2756 2759 3
2754 2755 2756 2760 3
2755 2756 2757 2758 3 16.73600 4.18400 -20.92000 0.00000 0.00000 0.00000 ; carbamates
2759 2756 2757 2758 3
2760 2756 2757 2758 3
2761 2755 2756 2757 3 20.50160 0.00000 -20.50160 0.00000 0.00000 0.00000 ; amides wlj 6/20/97
2761 2755 2756 2759 3
2761 2755 2756 2760 3
2763 2764 2765 2766 3 33.20422 0.00000 -33.20422 0.00000 0.00000 0.00000 ; methylguanidinium ion
2763 2764 2765 2770 3 20.50160 0.00000 -20.50160 0.00000 0.00000 0.00000 ; imides
2764 2765 2766 2767 3 25.47638 0.00000 -25.47638 0.00000 0.00000 0.00000 ; amides O-C(O)-N-C
2764 2765 2766 2768 3
2764 2765 2766 2769 3
2770 2765 2766 2767 3 20.50160 0.00000 -20.50160 0.00000 0.00000 0.00000 ; amides wlj 6/20/97
2770 2765 2766 2768 3
2770 2765 2766 2769 3
2772 2773 2774 2775 3 33.20422 0.00000 -33.20422 0.00000 0.00000 0.00000 ; methylguanidinium ion
2772 2773 2774 2779 3 20.50160 0.00000 -20.50160 0.00000 0.00000 0.00000 ; imides
2773 2774 2775 2776 3 25.47638 0.00000 -25.47638 0.00000 0.00000 0.00000 ; amides O-C(O)-N-C
2773 2774 2775 2777 3
2773 2774 2775 2778 3
2779 2774 2775 2776 3 20.50160 0.00000 -20.50160 0.00000 0.00000 0.00000 ; amides wlj 6/20/97
2779 2774 2775 2777 3
2779 2774 2775 2778 3
2781 2782 2783 2784 3 33.20422 0.00000 -33.20422 0.00000 0.00000 0.00000 ; methylguanidinium ion
2781 2782 2783 2787 3 20.50160 0.00000 -20.50160 0.00000 0.00000 0.00000 ; imides
2782 2783 2784 2785 3
2782 2783 2784 2786 3
2787 2783 2784 2785 3
2787 2783 2784 2786 3
2789 2790 2791 2792 3 33.20422 0.00000 -33.20422 0.00000 0.00000 0.00000 ; methylguanidinium ion
2789 2790 2791 2796 3 20.50160 0.00000 -20.50160 0.00000 0.00000 0.00000 ; imides
2790 2791 2792 2793 3 25.47638 0.00000 -25.47638 0.00000 0.00000 0.00000 ; amides O-C(O)-N-C
2790 2791 2792 2794 3
2790 2791 2792 2795 3
2796 2791 2792 2793 3 20.50160 0.00000 -20.50160 0.00000 0.00000 0.00000 ; amides wlj 6/20/97
2796 2791 2792 2794 3
2796 2791 2792 2795 3
2798 2799 2800 2801 3 33.20422 0.00000 -33.20422 0.00000 0.00000 0.00000 ; methylguanidinium ion
2798 2799 2800 2805 3 20.50160 0.00000 -20.50160 0.00000 0.00000 0.00000 ; imides
2799 2800 2801 2802 3 25.47638 0.00000 -25.47638 0.00000 0.00000 0.00000 ; amides O-C(O)-N-C
2799 2800 2801 2803 3
2799 2800 2801 2804 3
2805 2800 2801 2802 3 20.50160 0.00000 -20.50160 0.00000 0.00000 0.00000 ; amides wlj 6/20/97
2805 2800 2801 2803 3
2805 2800 2801 2804 3
2807 2808 2809 2810 3 33.20422 0.00000 -33.20422 0.00000 0.00000 0.00000 ; methylguanidinium ion
2807 2808 2809 2814 3 20.50160 0.00000 -20.50160 0.00000 0.00000 0.00000 ; imides
2808 2809 2810 2811 3 25.47638 0.00000 -25.47638 0.00000 0.00000 0.00000 ; amides O-C(O)-N-C
2808 2809 2810 2812 3
2808 2809 2810 2813 3
2814 2809 2810 2811 3 20.50160 0.00000 -20.50160 0.00000 0.00000 0.00000 ; amides wlj 6/20/97
2814 2809 2810 2812 3
2814 2809 2810 2813 3
2816 2817 2818 2819 3 33.20422 0.00000 -33.20422 0.00000 0.00000 0.00000 ; methylguanidinium ion
2816 2817 2818 2823 3 20.50160 0.00000 -20.50160 0.00000 0.00000 0.00000 ; imides
2817 2818 2819 2820 3 25.47638 0.00000 -25.47638 0.00000 0.00000 0.00000 ; amides O-C(O)-N-C
2817 2818 2819 2821 3
2817 2818 2819 2822 3
2823 2818 2819 2820 3 20.50160 0.00000 -20.50160 0.00000 0.00000 0.00000 ; amides wlj 6/20/97
2823 2818 2819 2821 3
2823 2818 2819 2822 3
2825 2826 2827 2828 3 33.20422 0.00000 -33.20422 0.00000 0.00000 0.00000 ; methylguanidinium ion
2825 2826 2827 2831 3 20.50160 0.00000 -20.50160 0.00000 0.00000 0.00000 ; imides
2826 2827 2828 2829 3
2826 2827 2828 2830 3
2831 2827 2828 2829 3
2831 2827 2828 2830 3
2833 2834 2835 2836 3 33.20422 0.00000 -33.20422 0.00000 0.00000 0.00000 ; methylguanidinium ion
2833 2834 2835 2840 3 20.50160 0.00000 -20.50160 0.00000 0.00000 0.00000 ; imides
2834 2835 2836 2837 3 25.47638 0.00000 -25.47638 0.00000 0.00000 0.00000 ; amides O-C(O)-N-C
2834 2835 2836 2838 3
2834 2835 2836 2839 3
2840 2835 2836 2837 3 20.50160 0.00000 -20.50160 0.00000 0.00000 0.00000 ; amides wlj 6/20/97
2840 2835 2836 2838 3
2840 2835 2836 2839 3
2842 2843 2844 2845 3 33.20422 0.00000 -33.20422 0.00000 0.00000 0.00000 ; methylguanidinium ion
2842 2843 2844 2849 3 20.50160 0.00000 -20.50160 0.00000 0.00000 0.00000 ; imides
2843 2844 2845 2846 3 25.47638 0.00000 -25.47638 0.00000 0.00000 0.00000 ; amides O-C(O)-N-C
2843 2844 2845 2847 3
2843 2844 2845 2848 3
2849 2844 2845 2846 3 20.50160 0.00000 -20.50160 0.00000 0.00000 0.00000 ; amides wlj 6/20/97
2849 2844 2845 2847 3
2849 2844 2845 2848 3
2851 2852 2853 2854 3 33.20422 0.00000 -33.20422 0.00000 0.00000 0.00000 ; methylguanidinium ion
2851 2852 2853 2857 3 20.50160 0.00000 -20.50160 0.00000 0.00000 0.00000 ; imides
2852 2853 2854 2855 3
2852 2853 2854 2856 3
2857 2853 2854 2855 3
2857 2853 2854 2856 3
2859 2860 2861 2862 3 33.20422 0.00000 -33.20422 0.00000 0.00000 0.00000 ; methylguanidinium ion
2859 2860 2861 2866 3 20.50160 0.00000 -20.50160 0.00000 0.00000 0.00000 ; imides
2860 2861 2862 2863 3 25.47638 0.00000 -25.47638 0.00000 0.00000 0.00000 ; amides O-C(O)-N-C
2860 2861 2862 2864 3
2860 2861 2862 2865 3
2866 2861 2862 2863 3 20.50160 0.00000 -20.50160 0.00000 0.00000 0.00000 ; amides wlj 6/20/97
2866 2861 2862 2864 3
2866 2861 2862 2865 3
2868 2869 2870 2871 3 33.20422 0.00000 -33.20422 0.00000 0.00000 0.00000 ; methylguanidinium ion
2868 2869 2870 2874 3 20.50160 0.00000 -20.50160 0.00000 0.00000 0.00000 ; imides
2869 2870 2871 2872 3
2869 2870 2871 2873 3
2874 2870 2871 2872 3
2874 2870 2871 2873 3
2876 2877 2878 2879 3 33.20422 0.00000 -33.20422 0.00000 0.00000 0.00000 ; methylguanidinium ion
2876 2877 2878 2882 3 20.50160 0.00000 -20.50160 0.00000 0.00000 0.00000 ; imides
2877 2878 2879 2880 3
2877 2878 2879 2881 3
2882 2878 2879 2880 3
2882 2878 2879 2881 3
2884 2885 2886 2887 3 33.20422 0.00000 -33.20422 0.00000 0.00000 0.00000 ; methylguanidinium ion
2884 2885 2886 2890 3 20.50160 0.00000 -20.50160 0.00000 0.00000 0.00000 ; imides
2885 2886 2887 2888 3
2885 2886 2887 2889 3
2890 2886 2887 2888 3
2890 2886 2887 2889 3
2892 2893 2894 2895 3 33.20422 0.00000 -33.20422 0.00000 0.00000 0.00000 ; methylguanidinium ion
2892 2893 2894 2899 3 20.50160 0.00000 -20.50160 0.00000 0.00000 0.00000 ; imides
2893 2894 2895 2896 3 25.47638 0.00000 -25.47638 0.00000 0.00000 0.00000 ; amides O-C(O)-N-C
2893 2894 2895 2897 3
2893 2894 2895 2898 3
2899 2894 2895 2896 3 20.50160 0.00000 -20.50160 0.00000 0.00000 0.00000 ; amides wlj 6/20/97
2899 2894 2895 2897 3
2899 2894 2895 2898 3
2901 2902 2903 2904 3 33.20422 0.00000 -33.20422 0.00000 0.00000 0.00000 ; methylguanidinium ion
2901 2902 2903 2907 3 20.50160 0.00000 -20.50160 0.00000 0.00000 0.00000 ; imides
2902 2903 2904 2905 3
2902 2903 2904 2906 3
2907 2903 2904 2905 3
2907 2903 2904 2906 3
2909 2910 2911 2912 3 33.20422 0.00000 -33.20422 0.00000 0.00000 0.00000 ; methylguanidinium ion
2909 2910 2911 2916 3 20.50160 0.00000 -20.50160 0.00000 0.00000 0.00000 ; imides
2910 2911 2912 2913 3 25.47638 0.00000 -25.47638 0.00000 0.00000 0.00000 ; amides O-C(O)-N-C
2910 2911 2912 2914 3
2910 2911 2912 2915 3
2916 2911 2912 2913 3 20.50160 0.00000 -20.50160 0.00000 0.00000 0.00000 ; amides wlj 6/20/97
2916 2911 2912 2914 3
2916 2911 2912 2915 3
2918 2919 2920 2921 3 33.20422 0.00000 -33.20422 0.00000 0.00000 0.00000 ; methylguanidinium ion
2918 2919 2920 2925 3 20.50160 0.00000 -20.50160 0.00000 0.00000 0.00000 ; imides
2919 2920 2921 2922 3 25.47638 0.00000 -25.47638 0.00000 0.00000 0.00000 ; amides O-C(O)-N-C
2919 2920 2921 2923 3
2919 2920 2921 2924 3
2925 2920 2921 2922 3 20.50160 0.00000 -20.50160 0.00000 0.00000 0.00000 ; amides wlj 6/20/97
2925 2920 2921 2923 3
2925 2920 2921 2924 3
2927 2928 2929 2930 3 33.20422 0.00000 -33.20422 0.00000 0.00000 0.00000 ; methylguanidinium ion
2927 2928 2929 2934 3 20.50160 0.00000 -20.50160 0.00000 0.00000 0.00000 ; imides
2928 2929 2930 2931 3 25.47638 0.00000 -25.47638 0.00000 0.00000 0.00000 ; amides O-C(O)-N-C
2928 2929 2930 2932 3
2928 2929 2930 2933 3
2934 2929 2930 2931 3 20.50160 0.00000 -20.50160 0.00000 0.00000 0.00000 ; amides wlj 6/20/97
2934 2929 2930 2932 3
2934 2929 2930 2933 3
2936 2937 2938 2939 3 33.20422 0.00000 -33.20422 0.00000 0.00000 0.00000 ; methylguanidinium ion
2936 2937 2938 2943 3 20.50160 0.00000 -20.50160 0.00000 0.00000 0.00000 ; imides
2937 2938 2939 2940 3 25.47638 0.00000 -25.47638 0.00000 0.00000 0.00000 ; amides O-C(O)-N-C
2937 2938 2939 2941 3
2937 2938 2939 2942 3
2943 2938 2939 2940 3 20.50160 0.00000 -20.50160 0.00000 0.00000 0.00000 ; amides wlj 6/20/97
2943 2938 2939 2941 3
2943 2938 2939 2942 3
2945 2946 2947 2948 3 33.20422 0.00000 -33.20422 0.00000 0.00000 0.00000 ; methylguanidinium ion
2945 2946 2947 2952 3 20.50160 0.00000 -20.50160 0.00000 0.00000 0.00000 ; imides
2946 2947 2948 2949 3 25.47638 0.00000 -25.47638 0.00000 0.00000 0.00000 ; amides O-C(O)-N-C
2946 2947 2948 2950 3
2946 2947 2948 2951 3
2952 2947 2948 2949 3 20.50160 0.00000 -20.50160 0.00000 0.00000 0.00000 ; amides wlj 6/20/97
2952 2947 2948 2950 3
2952 2947 2948 2951 3
2954 2955 2956 2957 3 33.20422 0.00000 -33.20422 0.00000 0.00000 0.00000 ; methylguanidinium ion
2954 2955 2956 2961 3 20.50160 0.00000 -20.50160 0.00000 0.00000 0.00000 ; imides
2955 2956 2957 2958 3 25.47638 0.00000 -25.47638 0.00000 0.00000 0.00000 ; amides O-C(O)-N-C
2955 2956 2957 2959 3
2955 2956 2957 2960 3
2961 2956 2957 2958 3 20.50160 0.00000 -20.50160 0.00000 0.00000 0.00000 ; amides wlj 6/20/97
2961 2956 2957 2959 3
2961 2956 2957 2960 3
2963 2964 2965 2966 3 33.20422 0.00000 -33.20422 0.00000 0.00000 0.00000 ; methylguanidinium ion
2963 2964 2965 2970 3 20.50160 0.00000 -20.50160 0.00000 0.00000 0.00000 ; imides
2964 2965 2966 2967 3 25.47638 0.00000 -25.47638 0.00000 0.00000 0.00000 ; amides O-C(O)-N-C
2964 2965 2966 2968 3
2964 2965 2966 2969 3
2970 2965 2966 2967 3 20.50160 0.00000 -20.50160 0.00000 0.00000 0.00000 ; amides wlj 6/20/97
2970 2965 2966 2968 3
2970 2965 2966 2969 3
2972 2973 2974 2975 3 33.20422 0.00000 -33.20422 0.00000 0.00000 0.00000 ; methylguanidinium ion
2972 2973 2974 2979 3 20.50160 0.00000 -20.50160 0.00000 0.00000 0.00000 ; imides
2973 2974 2975 2976 3 25.47638 0.00000 -25.47638 0.00000 0.00000 0.00000 ; amides O-C(O)-N-C
2973 2974 2975 2977 3
2973 2974 2975 2978 3
2979 2974 2975 2976 3 20.50160 0.00000 -20.50160 0.00000 0.00000 0.00000 ; amides wlj 6/20/97
2979 2974 2975 2977 3
2979 2974 2975 2978 3
2981 2982 2983 2984 3 33.20422 0.00000 -33.20422 0.00000 0.00000 0.00000 ; methylguanidinium ion
2981 2982 2983 2988 3 20.50160 0.00000 -20.50160 0.00000 0.00000 0.00000 ; imides
2982 2983 2984 2985 3 25.47638 0.00000 -25.47638 0.00000 0.00000 0.00000 ; amides O-C(O)-N-C
2982 2983 2984 2986 3
2982 2983 2984 2987 3
2988 2983 2984 2985 3 20.50160 0.00000 -20.50160 0.00000 0.00000 0.00000 ; amides wlj 6/20/97
2988 2983 2984 2986 3
2988 2983 2984 2987 3
2990 2991 2992 2993 3 33.20422 0.00000 -33.20422 0.00000 0.00000 0.00000 ; methylguanidinium ion
2990 2991 2992 2997 3 20.50160 0.00000 -20.50160 0.00000 0.00000 0.00000 ; imides
2991 2992 2993 2994 3 25.47638 0.00000 -25.47638 0.00000 0.00000 0.00000 ; amides O-C(O)-N-C
2991 2992 2993 2995 3
2991 2992 2993 2996 3
2997 2992 2993 2994 3 20.50160 0.00000 -20.50160 0.00000 0.00000 0.00000 ; amides wlj 6/20/97
2997 2992 2993 2995 3
2997 2992 2993 2996 3
2999 3000 3001 3002 3 33.20422 0.00000 -33.20422 0.00000 0.00000 0.00000 ; methylguanidinium ion
2999 3000 3001 3006 3 20.50160 0.00000 -20.50160 0.00000 0.00000 0.00000 ; imides
3000 3001 3002 3003 3 25.47638 0.00000 -25.47638 0.00000 0.00000 0.00000 ; amides O-C(O)-N-C
3000 3001 3002 3004 3
3000 3001 3002 3005 3
3006 3001 3002 3003 3 20.50160 0.00000 -20.50160 0.00000 0.00000 0.00000 ; amides wlj 6/20/97
3006 3001 3002 3004 3
3006 3001 3002 3005 3
3008 3009 3010 3011 3 33.20422 0.00000 -33.20422 0.00000 0.00000 0.00000 ; methylguanidinium ion
3008 3009 3010 3014 3 20.50160 0.00000 -20.50160 0.00000 0.00000 0.00000 ; imides
3009 3010 3011 3012 3
3009 3010 3011 3013 3
3014 3010 3011 3012 3
3014 3010 3011 3013 3
3016 3017 3018 3019 3 33.20422 0.00000 -33.20422 0.00000 0.00000 0.00000 ; methylguanidinium ion
3016 3017 3018 3022 3 20.50160 0.00000 -20.50160 0.00000 0.00000 0.00000 ; imides
3017 3018 3019 3020 3
3017 3018 3019 3021 3
3022 3018 3019 3020 3
3022 3018 3019 3021 3
3024 3025 3026 3027 3 33.20422 0.00000 -33.20422 0.00000 0.00000 0.00000 ; methylguanidinium ion
3024 3025 3026 3030 3 20.50160 0.00000 -20.50160 0.00000 0.00000 0.00000 ; imides
3025 3026 3027 3028 3
3025 3026 3027 3029 3
3030 3026 3027 3028 3
3030 3026 3027 3029 3
3032 3033 3034 3035 3 33.20422 0.00000 -33.20422 0.00000 0.00000 0.00000 ; methylguanidinium ion
3032 3033 3034 3039 3 20.50160 0.00000 -20.50160 0.00000 0.00000 0.00000 ; imides
3033 3034 3035 3036 3 25.47638 0.00000 -25.47638 0.00000 0.00000 0.00000 ; amides O-C(O)-N-C
3033 3034 3035 3037 3
3033 3034 3035 3038 3
3039 3034 3035 3036 3 20.50160 0.00000 -20.50160 0.00000 0.00000 0.00000 ; amides wlj 6/20/97
3039 3034 3035 3037 3
3039 3034 3035 3038 3
3041 3042 3043 3044 3 33.20422 0.00000 -33.20422 0.00000 0.00000 0.00000 ; methylguanidinium ion
3041 3042 3043 3047 3 20.50160 0.00000 -20.50160 0.00000 0.00000 0.00000 ; imides
3042 3043 3044 3045 3
3042 3043 3044 3046 3
3047 3043 3044 3045 3
3047 3043 3044 3046 3
3049 3050 3051 3052 3 33.20422 0.00000 -33.20422 0.00000 0.00000 0.00000 ; methylguanidinium ion
3049 3050 3051 3055 3 20.50160 0.00000 -20.50160 0.00000 0.00000 0.00000 ; imides
3050 3051 3052 3053 3
3050 3051 3052 3054 3
3055 3051 3052 3053 3
3055 3051 3052 3054 3
3057 3058 3059 3060 3 33.20422 0.00000 -33.20422 0.00000 0.00000 0.00000 ; methylguanidinium ion
3057 3058 3059 3064 3 20.50160 0.00000 -20.50160 0.00000 0.00000 0.00000 ; imides
3058 3059 3060 3061 3 25.47638 0.00000 -25.47638 0.00000 0.00000 0.00000 ; amides O-C(O)-N-C
3058 3059 3060 3062 3
3058 3059 3060 3063 3
3064 3059 3060 3061 3 20.50160 0.00000 -20.50160 0.00000 0.00000 0.00000 ; amides wlj 6/20/97
3064 3059 3060 3062 3
3064 3059 3060 3063 3
3066 3067 3068 3069 3 33.20422 0.00000 -33.20422 0.00000 0.00000 0.00000 ; methylguanidinium ion
3066 3067 3068 3073 3 20.50160 0.00000 -20.50160 0.00000 0.00000 0.00000 ; imides
3067 3068 3069 3070 3 25.47638 0.00000 -25.47638 0.00000 0.00000 0.00000 ; amides O-C(O)-N-C
3067 3068 3069 3071 3
3067 3068 3069 3072 3
3073 3068 3069 3070 3 20.50160 0.00000 -20.50160 0.00000 0.00000 0.00000 ; amides wlj 6/20/97
3073 3068 3069 3071 3
3073 3068 3069 3072 3
3075 3076 3077 3078 3 33.20422 0.00000 -33.20422 0.00000 0.00000 0.00000 ; methylguanidinium ion
3075 3076 3077 3082 3 20.50160 0.00000 -20.50160 0.00000 0.00000 0.00000 ; imides
3076 3077 3078 3079 3 25.47638 0.00000 -25.47638 0.00000 0.00000 0.00000 ; amides O-C(O)-N-C
3076 3077 3078 3080 3
3076 3077 3078 3081 3
3082 3077 3078 3079 3 20.50160 0.00000 -20.50160 0.00000 0.00000 0.00000 ; amides wlj 6/20/97
3082 3077 3078 3080 3
3082 3077 3078 3081 3
3084 3085 3086 3087 3 33.20422 0.00000 -33.20422 0.00000 0.00000 0.00000 ; methylguanidinium ion
3084 3085 3086 3092 3 20.50160 0.00000 -20.50160 0.00000 0.00000 0.00000 ; imides
3085 3086 3087 3088 3 25.47638 0.00000 -25.47638 0.00000 0.00000 0.00000 ; amides O-C(O)-N-C
3085 3086 3087 3090 3
3085 3086 3087 3091 3
3086 3087 3088 3089 3 16.73600 4.18400 -20.92000 0.00000 0.00000 0.00000 ; carbamates
3090 3087 3088 3089 3
3091 3087 3088 3089 3
3092 3086 3087 3088 3 20.50160 0.00000 -20.50160 0.00000 0.00000 0.00000 ; amides wlj 6/20/97
3092 3086 3087 3090 3
3092 3086 3087 3091 3
3094 3095 3096 3097 3 33.20422 0.00000 -33.20422 0.00000 0.00000 0.00000 ; methylguanidinium ion
3094 3095 3096 3101 3 20.50160 0.00000 -20.50160 0.00000 0.00000 0.00000 ; imides
3095 3096 3097 3098 3 25.47638 0.00000 -25.47638 0.00000 0.00000 0.00000 ; amides O-C(O)-N-C
3095 3096 3097 3099 3
3095 3096 3097 3100 3
3101 3096 3097 3098 3 20.50160 0.00000 -20.50160 0.00000 0.00000 0.00000 ; amides wlj 6/20/97
3101 3096 3097 3099 3
3101 3096 3097 3100 3
3103 3104 3105 3106 3 33.20422 0.00000 -33.20422 0.00000 0.00000 0.00000 ; methylguanidinium ion
3103 3104 3105 3109 3 20.50160 0.00000 -20.50160 0.00000 0.00000 0.00000 ; imides
3104 3105 3106 3107 3
3104 3105 3106 3108 3
3109 3105 3106 3107 3
3109 3105 3106 3108 3
3111 3112 3113 3114 3 33.20422 0.00000 -33.20422 0.00000 0.00000 0.00000 ; methylguanidinium ion
3111 3112 3113 3118 3 20.50160 0.00000 -20.50160 0.00000 0.00000 0.00000 ; imides
3112 3113 3114 3115 3 25.47638 0.00000 -25.47638 0.00000 0.00000 0.00000 ; amides O-C(O)-N-C
3112 3113 3114 3116 3
3112 3113 3114 3117 3
3118 3113 3114 3115 3 20.50160 0.00000 -20.50160 0.00000 0.00000 0.00000 ; amides wlj 6/20/97
3118 3113 3114 3116 3
3118 3113 3114 3117 3
3120 3121 3122 3123 3 33.20422 0.00000 -33.20422 0.00000 0.00000 0.00000 ; methylguanidinium ion
3120 3121 3122 3127 3 20.50160 0.00000 -20.50160 0.00000 0.00000 0.00000 ; imides
3121 3122 3123 3124 3 25.47638 0.00000 -25.47638 0.00000 0.00000 0.00000 ; amides O-C(O)-N-C
3121 3122 3123 3125 3
3121 3122 3123 3126 3
3127 3122 3123 3124 3 20.50160 0.00000 -20.50160 0.00000 0.00000 0.00000 ; amides wlj 6/20/97
3127 3122 3123 3125 3
3127 3122 3123 3126 3
3129 3130 3131 3132 3 33.20422 0.00000 -33.20422 0.00000 0.00000 0.00000 ; methylguanidinium ion
3129 3130 3131 3136 3 20.50160 0.00000 -20.50160 0.00000 0.00000 0.00000 ; imides
3130 3131 3132 3133 3 25.47638 0.00000 -25.47638 0.00000 0.00000 0.00000 ; amides O-C(O)-N-C
3130 3131 3132 3134 3
3130 3131 3132 3135 3
3136 3131 3132 3133 3 20.50160 0.00000 -20.50160 0.00000 0.00000 0.00000 ; amides wlj 6/20/97
3136 3131 3132 3134 3
3136 3131 3132 3135 3
3138 3139 3140 3141 3 33.20422 0.00000 -33.20422 0.00000 0.00000 0.00000 ; methylguanidinium ion
3138 3139 3140 3144 3 20.50160 0.00000 -20.50160 0.00000 0.00000 0.00000 ; imides
3139 3140 3141 3142 3
3139 3140 3141 3143 3
3144 3140 3141 3142 3
3144 3140 3141 3143 3
3146 3147 3148 3149 3 33.20422 0.00000 -33.20422 0.00000 0.00000 0.00000 ; methylguanidinium ion
3146 3147 3148 3152 3 20.50160 0.00000 -20.50160 0.00000 0.00000 0.00000 ; imides
3147 3148 3149 3150 3
3147 3148 3149 3151 3
3152 3148 3149 3150 3
3152 3148 3149 3151 3
3154 3155 3156 3157 3 33.20422 0.00000 -33.20422 0.00000 0.00000 0.00000 ; methylguanidinium ion
3154 3155 3156 3160 3 20.50160 0.00000 -20.50160 0.00000 0.00000 0.00000 ; imides
3155 3156 3157 3158 3
3155 3156 3157 3159 3
3160 3156 3157 3158 3
3160 3156 3157 3159 3
3162 3163 3164 3165 3 33.20422 0.00000 -33.20422 0.00000 0.00000 0.00000 ; methylguanidinium ion
3162 3163 3164 3169 3 20.50160 0.00000 -20.50160 0.00000 0.00000 0.00000 ; imides
3163 3164 3165 3166 3 25.47638 0.00000 -25.47638 0.00000 0.00000 0.00000 ; amides O-C(O)-N-C
3163 3164 3165 3167 3
3163 3164 3165 3168 3
3169 3164 3165 3166 3 20.50160 0.00000 -20.50160 0.00000 0.00000 0.00000 ; amides wlj 6/20/97
3169 3164 3165 3167 3
3169 3164 3165 3168 3
3171 3172 3173 3174 3 33.20422 0.00000 -33.20422 0.00000 0.00000 0.00000 ; methylguanidinium ion
3171 3172 3173 3177 3 20.50160 0.00000 -20.50160 0.00000 0.00000 0.00000 ; imides
3172 3173 3174 3175 3
3172 3173 3174 3176 3
3177 3173 3174 3175 3
3177 3173 3174 3176 3
3179 3180 3181 3182 3 33.20422 0.00000 -33.20422 0.00000 0.00000 0.00000 ; methylguanidinium ion
3179 3180 3181 3186 3 20.50160 0.00000 -20.50160 0.00000 0.00000 0.00000 ; imides
3180 3181 3182 3183 3 25.47638 0.00000 -25.47638 0.00000 0.00000 0.00000 ; amides O-C(O)-N-C
3180 3181 3182 3184 3
3180 3181 3182 3185 3
3186 3181 3182 3183 3 20.50160 0.00000 -20.50160 0.00000 0.00000 0.00000 ; amides wlj 6/20/97
3186 3181 3182 3184 3
3186 3181 3182 3185 3
3188 3189 3190 3191 3 33.20422 0.00000 -33.20422 0.00000 0.00000 0.00000 ; methylguanidinium ion
3188 3189 3190 3196 3 20.50160 0.00000 -20.50160 0.00000 0.00000 0.00000 ; imides
3189 3190 3191 3192 3 25.47638 0.00000 -25.47638 0.00000 0.00000 0.00000 ; amides O-C(O)-N-C
3189 3190 3191 3194 3
3189 3190 3191 3195 3
3190 3191 3192 3193 3 16.73600 4.18400 -20.92000 0.00000 0.00000 0.00000 ; carbamates
3194 3191 3192 3193 3
3195 3191 3192 3193 3
3196 3190 3191 3192 3 20.50160 0.00000 -20.50160 0.00000 0.00000 0.00000 ; amides wlj 6/20/97
3196 3190 3191 3194 3
3196 3190 3191 3195 3
3198 3199 3200 3201 3 33.20422 0.00000 -33.20422 0.00000 0.00000 0.00000 ; methylguanidinium ion
3198 3199 3200 3205 3 20.50160 0.00000 -20.50160 0.00000 0.00000 0.00000 ; imides
3199 3200 3201 3202 3 25.47638 0.00000 -25.47638 0.00000 0.00000 0.00000 ; amides O-C(O)-N-C
3199 3200 3201 3203 3
3199 3200 3201 3204 3
3205 3200 3201 3202 3 20.50160 0.00000 -20.50160 0.00000 0.00000 0.00000 ; amides wlj 6/20/97
3205 3200 3201 3203 3
3205 3200 3201 3204 3
3207 3208 3209 3210 3 33.20422 0.00000 -33.20422 0.00000 0.00000 0.00000 ; methylguanidinium ion
3207 3208 3209 3213 3 20.50160 0.00000 -20.50160 0.00000 0.00000 0.00000 ; imides
3208 3209 3210 3211 3
3208 3209 3210 3212 3
3213 3209 3210 3211 3
3213 3209 3210 3212 3
3215 3216 3217 3218 3 33.20422 0.00000 -33.20422 0.00000 0.00000 0.00000 ; methylguanidinium ion
3215 3216 3217 3222 3 20.50160 0.00000 -20.50160 0.00000 0.00000 0.00000 ; imides
3216 3217 3218 3219 3 25.47638 0.00000 -25.47638 0.00000 0.00000 0.00000 ; amides O-C(O)-N-C
3216 3217 3218 3220 3
3216 3217 3218 3221 3
3222 3217 3218 3219 3 20.50160 0.00000 -20.50160 0.00000 0.00000 0.00000 ; amides wlj 6/20/97
3222 3217 3218 3220 3
3222 3217 3218 3221 3
3224 3225 3226 3227 3 33.20422 0.00000 -33.20422 0.00000 0.00000 0.00000 ; methylguanidinium ion
3224 3225 3226 3230 3 20.50160 0.00000 -20.50160 0.00000 0.00000 0.00000 ; imides
3225 3226 3227 3228 3
3225 3226 3227 3229 3
3230 3226 3227 3228 3
3230 3226 3227 3229 3
3232 3233 3234 3235 3 33.20422 0.00000 -33.20422 0.00000 0.00000 0.00000 ; methylguanidinium ion
3232 3233 3234 3239 3 20.50160 0.00000 -20.50160 0.00000 0.00000 0.00000 ; imides
3233 3234 3235 3236 3 25.47638 0.00000 -25.47638 0.00000 0.00000 0.00000 ; amides O-C(O)-N-C
3233 3234 3235 3237 3
3233 3234 3235 3238 3
3239 3234 3235 3236 3 20.50160 0.00000 -20.50160 0.00000 0.00000 0.00000 ; amides wlj 6/20/97
3239 3234 3235 3237 3
3239 3234 3235 3238 3
3241 3242 3243 3244 3 33.20422 0.00000 -33.20422 0.00000 0.00000 0.00000 ; methylguanidinium ion
3241 3242 3243 3249 3 20.50160 0.00000 -20.50160 0.00000 0.00000 0.00000 ; imides
3242 3243 3244 3245 3 25.47638 0.00000 -25.47638 0.00000 0.00000 0.00000 ; amides O-C(O)-N-C
3242 3243 3244 3247 3
3242 3243 3244 3248 3
3243 3244 3245 3246 3 16.73600 4.18400 -20.92000 0.00000 0.00000 0.00000 ; carbamates
3247 3244 3245 3246 3
3248 3244 3245 3246 3
3249 3243 3244 3245 3 20.50160 0.00000 -20.50160 0.00000 0.00000 0.00000 ; amides wlj 6/20/97
3249 3243 3244 3247 3
3249 3243 3244 3248 3
3251 3252 3253 3254 3 33.20422 0.00000 -33.20422 0.00000 0.00000 0.00000 ; methylguanidinium ion
3251 3252 3253 3258 3 20.50160 0.00000 -20.50160 0.00000 0.00000 0.00000 ; imides
3252 3253 3254 3255 3 25.47638 0.00000 -25.47638 0.00000 0.00000 0.00000 ; amides O-C(O)-N-C
3252 3253 3254 3256 3
3252 3253 3254 3257 3
3258 3253 3254 3255 3 20.50160 0.00000 -20.50160 0.00000 0.00000 0.00000 ; amides wlj 6/20/97
3258 3253 3254 3256 3
3258 3253 3254 3257 3
3260 3261 3262 3263 3 33.20422 0.00000 -33.20422 0.00000 0.00000 0.00000 ; methylguanidinium ion
3260 3261 3262 3267 3 20.50160 0.00000 -20.50160 0.00000 0.00000 0.00000 ; imides
3261 3262 3263 3264 3 25.47638 0.00000 -25.47638 0.00000 0.00000 0.00000 ; amides O-C(O)-N-C
3261 3262 3263 3265 3
3261 3262 3263 3266 3
3267 3262 3263 3264 3 20.50160 0.00000 -20.50160 0.00000 0.00000 0.00000 ; amides wlj 6/20/97
3267 3262 3263 3265 3
3267 3262 3263 3266 3
3269 3270 3271 3272 3 33.20422 0.00000 -33.20422 0.00000 0.00000 0.00000 ; methylguanidinium ion
3269 3270 3271 3276 3 20.50160 0.00000 -20.50160 0.00000 0.00000 0.00000 ; imides
3270 3271 3272 3273 3 25.47638 0.00000 -25.47638 0.00000 0.00000 0.00000 ; amides O-C(O)-N-C
3270 3271 3272 3274 3
3270 3271 3272 3275 3
3276 3271 3272 3273 3 20.50160 0.00000 -20.50160 0.00000 0.00000 0.00000 ; amides wlj 6/20/97
3276 3271 3272 3274 3
3276 3271 3272 3275 3
3278 3279 3280 3281 3 33.20422 0.00000 -33.20422 0.00000 0.00000 0.00000 ; methylguanidinium ion
3278 3279 3280 3285 3 20.50160 0.00000 -20.50160 0.00000 0.00000 0.00000 ; imides
3279 3280 3281 3282 3 25.47638 0.00000 -25.47638 0.00000 0.00000 0.00000 ; amides O-C(O)-N-C
3279 3280 3281 3283 3
3279 3280 3281 3284 3
3285 3280 3281 3282 3 20.50160 0.00000 -20.50160 0.00000 0.00000 0.00000 ; amides wlj 6/20/97
3285 3280 3281 3283 3
3285 3280 3281 3284 3
3287 3288 3289 3290 3 33.20422 0.00000 -33.20422 0.00000 0.00000 0.00000 ; methylguanidinium ion
3287 3288 3289 3294 3 20.50160 0.00000 -20.50160 0.00000 0.00000 0.00000 ; imides
3288 3289 3290 3291 3 25.47638 0.00000 -25.47638 0.00000 0.00000 0.00000 ; amides O-C(O)-N-C
3288 3289 3290 3292 3
3288 3289 3290 3293 3
3294 3289 3290 3291 3 20.50160 0.00000 -20.50160 0.00000 0.00000 0.00000 ; amides wlj 6/20/97
3294 3289 3290 3292 3
3294 3289 3290 3293 3
3296 3297 3298 3299 3 33.20422 0.00000 -33.20422 0.00000 0.00000 0.00000 ; methylguanidinium ion
3296 3297 3298 3303 3 20.50160 0.00000 -20.50160 0.00000 0.00000 0.00000 ; imides
3297 3298 3299 3300 3 25.47638 0.00000 -25.47638 0.00000 0.00000 0.00000 ; amides O-C(O)-N-C
3297 3298 3299 3301 3
3297 3298 3299 3302 3
3303 3298 3299 3300 3 20.50160 0.00000 -20.50160 0.00000 0.00000 0.00000 ; amides wlj 6/20/97
3303 3298 3299 3301 3
3303 3298 3299 3302 3
3305 3306 3307 3308 3 33.20422 0.00000 -33.20422 0.00000 0.00000 0.00000 ; methylguanidinium ion
3305 3306 3307 3312 3 20.50160 0.00000 -20.50160 0.00000 0.00000 0.00000 ; imides
3306 3307 3308 3309 3 25.47638 0.00000 -25.47638 0.00000 0.00000 0.00000 ; amides O-C(O)-N-C
3306 3307 3308 3310 3
3306 3307 3308 3311 3
3312 3307 3308 3309 3 20.50160 0.00000 -20.50160 0.00000 0.00000 0.00000 ; amides wlj 6/20/97
3312 3307 3308 3310 3
3312 3307 3308 3311 3
3314 3315 3316 3317 3 33.20422 0.00000 -33.20422 0.00000 0.00000 0.00000 ; methylguanidinium ion
3314 3315 3316 3320 3 20.50160 0.00000 -20.50160 0.00000 0.00000 0.00000 ; imides
3315 3316 3317 3318 3
3315 3316 3317 3319 3
3320 3316 3317 3318 3
3320 3316 3317 3319 3
3322 3323 3324 3325 3 33.20422 0.00000 -33.20422 0.00000 0.00000 0.00000 ; methylguanidinium ion
3322 3323 3324 3329 3 20.50160 0.00000 -20.50160 0.00000 0.00000 0.00000 ; imides
3323 3324 3325 3326 3 25.47638 0.00000 -25.47638 0.00000 0.00000 0.00000 ; amides O-C(O)-N-C
3323 3324 3325 3327 3
3323 3324 3325 3328 3
3329 3324 3325 3326 3 20.50160 0.00000 -20.50160 0.00000 0.00000 0.00000 ; amides wlj 6/20/97
3329 3324 3325 3327 3
3329 3324 3325 3328 3
3331 3332 3333 3334 3 33.20422 0.00000 -33.20422 0.00000 0.00000 0.00000 ; methylguanidinium ion
3331 3332 3333 3338 3 20.50160 0.00000 -20.50160 0.00000 0.00000 0.00000 ; imides
3332 3333 3334 3335 3 25.47638 0.00000 -25.47638 0.00000 0.00000 0.00000 ; amides O-C(O)-N-C
3332 3333 3334 3336 3
3332 3333 3334 3337 3
3338 3333 3334 3335 3 20.50160 0.00000 -20.50160 0.00000 0.00000 0.00000 ; amides wlj 6/20/97
3338 3333 3334 3336 3
3338 3333 3334 3337 3
3340 3341 3342 3343 3 33.20422 0.00000 -33.20422 0.00000 0.00000 0.00000 ; methylguanidinium ion
3340 3341 3342 3348 3 20.50160 0.00000 -20.50160 0.00000 0.00000 0.00000 ; imides
3341 3342 3343 3344 3 25.47638 0.00000 -25.47638 0.00000 0.00000 0.00000 ; amides O-C(O)-N-C
3341 3342 3343 3346 3
3341 3342 3343 3347 3
3342 3343 3344 3345 3 16.73600 4.18400 -20.92000 0.00000 0.00000 0.00000 ; carbamates
3346 3343 3344 3345 3
3347 3343 3344 3345 3
3348 3342 3343 3344 3 20.50160 0.00000 -20.50160 0.00000 0.00000 0.00000 ; amides wlj 6/20/97
3348 3342 3343 3346 3
3348 3342 3343 3347 3
3350 3351 3352 3353 3 33.20422 0.00000 -33.20422 0.00000 0.00000 0.00000 ; methylguanidinium ion
3350 3351 3352 3358 3 20.50160 0.00000 -20.50160 0.00000 0.00000 0.00000 ; imides
3351 3352 3353 3354 3 25.47638 0.00000 -25.47638 0.00000 0.00000 0.00000 ; amides O-C(O)-N-C
3351 3352 3353 3356 3
3351 3352 3353 3357 3
3352 3353 3354 3355 3 16.73600 4.18400 -20.92000 0.00000 0.00000 0.00000 ; carbamates
3356 3353 3354 3355 3
3357 3353 3354 3355 3
3358 3352 3353 3354 3 20.50160 0.00000 -20.50160 0.00000 0.00000 0.00000 ; amides wlj 6/20/97
3358 3352 3353 3356 3
3358 3352 3353 3357 3
3360 3361 3362 3363 3 33.20422 0.00000 -33.20422 0.00000 0.00000 0.00000 ; methylguanidinium ion
3360 3361 3362 3367 3 20.50160 0.00000 -20.50160 0.00000 0.00000 0.00000 ; imides
3361 3362 3363 3364 3 25.47638 0.00000 -25.47638 0.00000 0.00000 0.00000 ; amides O-C(O)-N-C
3361 3362 3363 3365 3
3361 3362 3363 3366 3
3367 3362 3363 3364 3 20.50160 0.00000 -20.50160 0.00000 0.00000 0.00000 ; amides wlj 6/20/97
3367 3362 3363 3365 3
3367 3362 3363 3366 3
3369 3370 3371 3372 3 33.20422 0.00000 -33.20422 0.00000 0.00000 0.00000 ; methylguanidinium ion
3369 3370 3371 3376 3 20.50160 0.00000 -20.50160 0.00000 0.00000 0.00000 ; imides
3370 3371 3372 3373 3 25.47638 0.00000 -25.47638 0.00000 0.00000 0.00000 ; amides O-C(O)-N-C
3370 3371 3372 3374 3
3370 3371 3372 3375 3
3376 3371 3372 3373 3 20.50160 0.00000 -20.50160 0.00000 0.00000 0.00000 ; amides wlj 6/20/97
3376 3371 3372 3374 3
3376 3371 3372 3375 3
3378 3379 3380 3381 3 33.20422 0.00000 -33.20422 0.00000 0.00000 0.00000 ; methylguanidinium ion
3378 3379 3380 3386 3 20.50160 0.00000 -20.50160 0.00000 0.00000 0.00000 ; imides
3379 3380 3381 3382 3 25.47638 0.00000 -25.47638 0.00000 0.00000 0.00000 ; amides O-C(O)-N-C
3379 3380 3381 3384 3
3379 3380 3381 3385 3
3380 3381 3382 3383 3 16.73600 4.18400 -20.92000 0.00000 0.00000 0.00000 ; carbamates
3384 3381 3382 3383 3
3385 3381 3382 3383 3
3386 3380 3381 3382 3 20.50160 0.00000 -20.50160 0.00000 0.00000 0.00000 ; amides wlj 6/20/97
3386 3380 3381 3384 3
3386 3380 3381 3385 3
3388 3389 3390 3391 3 33.20422 0.00000 -33.20422 0.00000 0.00000 0.00000 ; methylguanidinium ion
3388 3389 3390 3395 3 20.50160 0.00000 -20.50160 0.00000 0.00000 0.00000 ; imides
3389 3390 3391 3392 3 25.47638 0.00000 -25.47638 0.00000 0.00000 0.00000 ; amides O-C(O)-N-C
3389 3390 3391 3393 3
3389 3390 3391 3394 3
3395 3390 3391 3392 3 20.50160 0.00000 -20.50160 0.00000 0.00000 0.00000 ; amides wlj 6/20/97
3395 3390 3391 3393 3
3395 3390 3391 3394 3
3397 3398 3399 3400 3 33.20422 0.00000 -33.20422 0.00000 0.00000 0.00000 ; methylguanidinium ion
3397 3398 3399 3404 3 20.50160 0.00000 -20.50160 0.00000 0.00000 0.00000 ; imides
3398 3399 3400 3401 3 25.47638 0.00000 -25.47638 0.00000 0.00000 0.00000 ; amides O-C(O)-N-C
3398 3399 3400 3402 3
3398 3399 3400 3403 3
3404 3399 3400 3401 3 20.50160 0.00000 -20.50160 0.00000 0.00000 0.00000 ; amides wlj 6/20/97
3404 3399 3400 3402 3
3404 3399 3400 3403 3
3406 3407 3408 3409 3 33.20422 0.00000 -33.20422 0.00000 0.00000 0.00000 ; methylguanidinium ion
3406 3407 3408 3413 3 20.50160 0.00000 -20.50160 0.00000 0.00000 0.00000 ; imides
3407 3408 3409 3410 3 25.47638 0.00000 -25.47638 0.00000 0.00000 0.00000 ; amides O-C(O)-N-C
3407 3408 3409 3411 3
3407 3408 3409 3412 3
3413 3408 3409 3410 3 20.50160 0.00000 -20.50160 0.00000 0.00000 0.00000 ; amides wlj 6/20/97
3413 3408 3409 3411 3
3413 3408 3409 3412 3
3415 3416 3417 3418 3 33.20422 0.00000 -33.20422 0.00000 0.00000 0.00000 ; methylguanidinium ion
3415 3416 3417 3422 3 20.50160 0.00000 -20.50160 0.00000 0.00000 0.00000 ; imides
3416 3417 3418 3419 3 25.47638 0.00000 -25.47638 0.00000 0.00000 0.00000 ; amides O-C(O)-N-C
3416 3417 3418 3420 3
3416 3417 3418 3421 3
3422 3417 3418 3419 3 20.50160 0.00000 -20.50160 0.00000 0.00000 0.00000 ; amides wlj 6/20/97
3422 3417 3418 3420 3
3422 3417 3418 3421 3
3424 3425 3426 3427 3 33.20422 0.00000 -33.20422 0.00000 0.00000 0.00000 ; methylguanidinium ion
3424 3425 3426 3431 3 20.50160 0.00000 -20.50160 0.00000 0.00000 0.00000 ; imides
3425 3426 3427 3428 3 25.47638 0.00000 -25.47638 0.00000 0.00000 0.00000 ; amides O-C(O)-N-C
3425 3426 3427 3429 3
3425 3426 3427 3430 3
3431 3426 3427 3428 3 20.50160 0.00000 -20.50160 0.00000 0.00000 0.00000 ; amides wlj 6/20/97
3431 3426 3427 3429 3
3431 3426 3427 3430 3
3433 3434 3435 3436 3 33.20422 0.00000 -33.20422 0.00000 0.00000 0.00000 ; methylguanidinium ion
3433 3434 3435 3440 3 20.50160 0.00000 -20.50160 0.00000 0.00000 0.00000 ; imides
3434 3435 3436 3437 3 25.47638 0.00000 -25.47638 0.00000 0.00000 0.00000 ; amides O-C(O)-N-C
3434 3435 3436 3438 3
3434 3435 3436 3439 3
3440 3435 3436 3437 3 20.50160 0.00000 -20.50160 0.00000 0.00000 0.00000 ; amides wlj 6/20/97
3440 3435 3436 3438 3
3440 3435 3436 3439 3
3442 3443 3444 3445 3 33.20422 0.00000 -33.20422 0.00000 0.00000 0.00000 ; methylguanidinium ion
3442 3443 3444 3449 3 20.50160 0.00000 -20.50160 0.00000 0.00000 0.00000 ; imides
3443 3444 3445 3446 3 25.47638 0.00000 -25.47638 0.00000 0.00000 0.00000 ; amides O-C(O)-N-C
3443 3444 3445 3447 3
3443 3444 3445 3448 3
3449 3444 3445 3446 3 20.50160 0.00000 -20.50160 0.00000 0.00000 0.00000 ; amides wlj 6/20/97
3449 3444 3445 3447 3
3449 3444 3445 3448 3
3451 3452 3453 3454 3 33.20422 0.00000 -33.20422 0.00000 0.00000 0.00000 ; methylguanidinium ion
3451 3452 3453 3458 3 20.50160 0.00000 -20.50160 0.00000 0.00000 0.00000 ; imides
3452 3453 3454 3455 3 25.47638 0.00000 -25.47638 0.00000 0.00000 0.00000 ; amides O-C(O)-N-C
3452 3453 3454 3456 3
3452 3453 3454 3457 3
3458 3453 3454 3455 3 20.50160 0.00000 -20.50160 0.00000 0.00000 0.00000 ; amides wlj 6/20/97
3458 3453 3454 3456 3
3458 3453 3454 3457 3
3460 3461 3462 3463 3 33.20422 0.00000 -33.20422 0.00000 0.00000 0.00000 ; methylguanidinium ion
3460 3461 3462 3468 3 20.50160 0.00000 -20.50160 0.00000 0.00000 0.00000 ; imides
3461 3462 3463 3464 3 25.47638 0.00000 -25.47638 0.00000 0.00000 0.00000 ; amides O-C(O)-N-C
3461 3462 3463 3466 3
3461 3462 3463 3467 3
3462 3463 3464 3465 3 16.73600 4.18400 -20.92000 0.00000 0.00000 0.00000 ; carbamates
3466 3463 3464 3465 3
3467 3463 3464 3465 3
3468 3462 3463 3464 3 20.50160 0.00000 -20.50160 0.00000 0.00000 0.00000 ; amides wlj 6/20/97
3468 3462 3463 3466 3
3468 3462 3463 3467 3
3470 3471 3472 3473 3 33.20422 0.00000 -33.20422 0.00000 0.00000 0.00000 ; methylguanidinium ion
3470 3471 3472 3477 3 20.50160 0.00000 -20.50160 0.00000 0.00000 0.00000 ; imides
3471 3472 3473 3474 3 25.47638 0.00000 -25.47638 0.00000 0.00000 0.00000 ; amides O-C(O)-N-C
3471 3472 3473 3475 3
3471 3472 3473 3476 3
3477 3472 3473 3474 3 20.50160 0.00000 -20.50160 0.00000 0.00000 0.00000 ; amides wlj 6/20/97
3477 3472 3473 3475 3
3477 3472 3473 3476 3
3479 3480 3481 3482 3 33.20422 0.00000 -33.20422 0.00000 0.00000 0.00000 ; methylguanidinium ion
3479 3480 3481 3486 3 20.50160 0.00000 -20.50160 0.00000 0.00000 0.00000 ; imides
3480 3481 3482 3483 3 25.47638 0.00000 -25.47638 0.00000 0.00000 0.00000 ; amides O-C(O)-N-C
3480 3481 3482 3484 3
3480 3481 3482 3485 3
3486 3481 3482 3483 3 20.50160 0.00000 -20.50160 0.00000 0.00000 0.00000 ; amides wlj 6/20/97
3486 3481 3482 3484 3
3486 3481 3482 3485 3
3488 3489 3490 3491 3 33.20422 0.00000 -33.20422 0.00000 0.00000 0.00000 ; methylguanidinium ion
3488 3489 3490 3495 3 20.50160 0.00000 -20.50160 0.00000 0.00000 0.00000 ; imides
3489 3490 3491 3492 3 25.47638 0.00000 -25.47638 0.00000 0.00000 0.00000 ; amides O-C(O)-N-C
3489 3490 3491 3493 3
3489 3490 3491 3494 3
3495 3490 3491 3492 3 20.50160 0.00000 -20.50160 0.00000 0.00000 0.00000 ; amides wlj 6/20/97
3495 3490 3491 3493 3
3495 3490 3491 3494 3
3497 3498 3499 3500 3 33.20422 0.00000 -33.20422 0.00000 0.00000 0.00000 ; methylguanidinium ion
3497 3498 3499 3504 3 20.50160 0.00000 -20.50160 0.00000 0.00000 0.00000 ; imides
3498 3499 3500 3501 3 25.47638 0.00000 -25.47638 0.00000 0.00000 0.00000 ; amides O-C(O)-N-C
3498 3499 3500 3502 3
3498 3499 3500 3503 3
3504 3499 3500 3501 3 20.50160 0.00000 -20.50160 0.00000 0.00000 0.00000 ; amides wlj 6/20/97
3504 3499 3500 3502 3
3504 3499 3500 3503 3
3506 3507 3508 3509 3 33.20422 0.00000 -33.20422 0.00000 0.00000 0.00000 ; methylguanidinium ion
3506 3507 3508 3512 3 20.50160 0.00000 -20.50160 0.00000 0.00000 0.00000 ; imides
3507 3508 3509 3510 3
3507 3508 3509 3511 3
3512 3508 3509 3510 3
3512 3508 3509 3511 3
3514 3515 3516 3517 3 33.20422 0.00000 -33.20422 0.00000 0.00000 0.00000 ; methylguanidinium ion
3514 3515 3516 3521 3 20.50160 0.00000 -20.50160 0.00000 0.00000 0.00000 ; imides
3515 3516 3517 3518 3 25.47638 0.00000 -25.47638 0.00000 0.00000 0.00000 ; amides O-C(O)-N-C
3515 3516 3517 3519 3
3515 3516 3517 3520 3
3521 3516 3517 3518 3 20.50160 0.00000 -20.50160 0.00000 0.00000 0.00000 ; amides wlj 6/20/97
3521 3516 3517 3519 3
3521 3516 3517 3520 3
3523 3524 3525 3526 3 33.20422 0.00000 -33.20422 0.00000 0.00000 0.00000 ; methylguanidinium ion
3523 3524 3525 3530 3 20.50160 0.00000 -20.50160 0.00000 0.00000 0.00000 ; imides
3524 3525 3526 3527 3 25.47638 0.00000 -25.47638 0.00000 0.00000 0.00000 ; amides O-C(O)-N-C
3524 3525 3526 3528 3
3524 3525 3526 3529 3
3530 3525 3526 3527 3 20.50160 0.00000 -20.50160 0.00000 0.00000 0.00000 ; amides wlj 6/20/97
3530 3525 3526 3528 3
3530 3525 3526 3529 3
3532 3533 3534 3535 3 33.20422 0.00000 -33.20422 0.00000 0.00000 0.00000 ; methylguanidinium ion
3532 3533 3534 3539 3 20.50160 0.00000 -20.50160 0.00000 0.00000 0.00000 ; imides
3533 3534 3535 3536 3 25.47638 0.00000 -25.47638 0.00000 0.00000 0.00000 ; amides O-C(O)-N-C
3533 3534 3535 3537 3
3533 3534 3535 3538 3
3539 3534 3535 3536 3 20.50160 0.00000 -20.50160 0.00000 0.00000 0.00000 ; amides wlj 6/20/97
3539 3534 3535 3537 3
3539 3534 3535 3538 3
3541 3542 3543 3544 3 33.20422 0.00000 -33.20422 0.00000 0.00000 0.00000 ; methylguanidinium ion
3541 3542 3543 3548 3 20.50160 0.00000 -20.50160 0.00000 0.00000 0.00000 ; imides
3542 3543 3544 3545 3 25.47638 0.00000 -25.47638 0.00000 0.00000 0.00000 ; amides O-C(O)-N-C
3542 3543 3544 3546 3
3542 3543 3544 3547 3
3548 3543 3544 3545 3 20.50160 0.00000 -20.50160 0.00000 0.00000 0.00000 ; amides wlj 6/20/97
3548 3543 3544 3546 3
3548 3543 3544 3547 3
3550 3551 3552 3553 3 33.20422 0.00000 -33.20422 0.00000 0.00000 0.00000 ; methylguanidinium ion
3550 3551 3552 3557 3 20.50160 0.00000 -20.50160 0.00000 0.00000 0.00000 ; imides
3551 3552 3553 3554 3 25.47638 0.00000 -25.47638 0.00000 0.00000 0.00000 ; amides O-C(O)-N-C
3551 3552 3553 3555 3
3551 3552 3553 3556 3
3557 3552 3553 3554 3 20.50160 0.00000 -20.50160 0.00000 0.00000 0.00000 ; amides wlj 6/20/97
3557 3552 3553 3555 3
3557 3552 3553 3556 3
3559 3560 3561 3562 3 33.20422 0.00000 -33.20422 0.00000 0.00000 0.00000 ; methylguanidinium ion
3559 3560 3561 3566 3 20.50160 0.00000 -20.50160 0.00000 0.00000 0.00000 ; imides
3560 3561 3562 3563 3 25.47638 0.00000 -25.47638 0.00000 0.00000 0.00000 ; amides O-C(O)-N-C
3560 3561 3562 3564 3
3560 3561 3562 3565 3
3566 3561 3562 3563 3 20.50160 0.00000 -20.50160 0.00000 0.00000 0.00000 ; amides wlj 6/20/97
3566 3561 3562 3564 3
3566 3561 3562 3565 3
3568 3569 3570 3571 3 33.20422 0.00000 -33.20422 0.00000 0.00000 0.00000 ; methylguanidinium ion
3568 3569 3570 3574 3 20.50160 0.00000 -20.50160 0.00000 0.00000 0.00000 ; imides
3569 3570 3571 3572 3
3569 3570 3571 3573 3
3574 3570 3571 3572 3
3574 3570 3571 3573 3
3576 3577 3578 3579 3 33.20422 0.00000 -33.20422 0.00000 0.00000 0.00000 ; methylguanidinium ion
3576 3577 3578 3582 3 20.50160 0.00000 -20.50160 0.00000 0.00000 0.00000 ; imides
3577 3578 3579 3580 3
3577 3578 3579 3581 3
3582 3578 3579 3580 3
3582 3578 3579 3581 3
3584 3585 3586 3587 3 33.20422 0.00000 -33.20422 0.00000 0.00000 0.00000 ; methylguanidinium ion
3584 3585 3586 3591 3 20.50160 0.00000 -20.50160 0.00000 0.00000 0.00000 ; imides
3585 3586 3587 3588 3 25.47638 0.00000 -25.47638 0.00000 0.00000 0.00000 ; amides O-C(O)-N-C
3585 3586 3587 3589 3
3585 3586 3587 3590 3
3591 3586 3587 3588 3 20.50160 0.00000 -20.50160 0.00000 0.00000 0.00000 ; amides wlj 6/20/97
3591 3586 3587 3589 3
3591 3586 3587 3590 3
3593 3594 3595 3596 3 33.20422 0.00000 -33.20422 0.00000 0.00000 0.00000 ; methylguanidinium ion
3593 3594 3595 3599 3 20.50160 0.00000 -20.50160 0.00000 0.00000 0.00000 ; imides
3594 3595 3596 3597 3
3594 3595 3596 3598 3
3599 3595 3596 3597 3
3599 3595 3596 3598 3
3601 3602 3603 3604 3 33.20422 0.00000 -33.20422 0.00000 0.00000 0.00000 ; methylguanidinium ion
3601 3602 3603 3607 3 20.50160 0.00000 -20.50160 0.00000 0.00000 0.00000 ; imides
3602 3603 3604 3605 3
3602 3603 3604 3606 3
3607 3603 3604 3605 3
3607 3603 3604 3606 3
3609 3610 3611 3612 3 33.20422 0.00000 -33.20422 0.00000 0.00000 0.00000 ; methylguanidinium ion
3609 3610 3611 3616 3 20.50160 0.00000 -20.50160 0.00000 0.00000 0.00000 ; imides
3610 3611 3612 3613 3 25.47638 0.00000 -25.47638 0.00000 0.00000 0.00000 ; amides O-C(O)-N-C
3610 3611 3612 3614 3
3610 3611 3612 3615 3
3616 3611 3612 3613 3 20.50160 0.00000 -20.50160 0.00000 0.00000 0.00000 ; amides wlj 6/20/97
3616 3611 3612 3614 3
3616 3611 3612 3615 3
3618 3619 3620 3621 3 33.20422 0.00000 -33.20422 0.00000 0.00000 0.00000 ; methylguanidinium ion
3618 3619 3620 3624 3 20.50160 0.00000 -20.50160 0.00000 0.00000 0.00000 ; imides
3619 3620 3621 3622 3
3619 3620 3621 3623 3
3624 3620 3621 3622 3
3624 3620 3621 3623 3
3626 3627 3628 3629 3 33.20422 0.00000 -33.20422 0.00000 0.00000 0.00000 ; methylguanidinium ion
3626 3627 3628 3633 3 20.50160 0.00000 -20.50160 0.00000 0.00000 0.00000 ; imides
3627 3628 3629 3630 3 25.47638 0.00000 -25.47638 0.00000 0.00000 0.00000 ; amides O-C(O)-N-C
3627 3628 3629 3631 3
3627 3628 3629 3632 3
3633 3628 3629 3630 3 20.50160 0.00000 -20.50160 0.00000 0.00000 0.00000 ; amides wlj 6/20/97
3633 3628 3629 3631 3
3633 3628 3629 3632 3
3635 3636 3637 3638 3 33.20422 0.00000 -33.20422 0.00000 0.00000 0.00000 ; methylguanidinium ion
3635 3636 3637 3641 3 20.50160 0.00000 -20.50160 0.00000 0.00000 0.00000 ; imides
3636 3637 3638 3639 3
3636 3637 3638 3640 3
3641 3637 3638 3639 3
3641 3637 3638 3640 3
3643 3644 3645 3646 3 33.20422 0.00000 -33.20422 0.00000 0.00000 0.00000 ; methylguanidinium ion
3643 3644 3645 3650 3 20.50160 0.00000 -20.50160 0.00000 0.00000 0.00000 ; imides
3644 3645 3646 3647 3 25.47638 0.00000 -25.47638 0.00000 0.00000 0.00000 ; amides O-C(O)-N-C
3644 3645 3646 3648 3
3644 3645 3646 3649 3
3650 3645 3646 3647 3 20.50160 0.00000 -20.50160 0.00000 0.00000 0.00000 ; amides wlj 6/20/97
3650 3645 3646 3648 3
3650 3645 3646 3649 3
3652 3653 3654 3655 3 33.20422 0.00000 -33.20422 0.00000 0.00000 0.00000 ; methylguanidinium ion
3652 3653 3654 3658 3 20.50160 0.00000 -20.50160 0.00000 0.00000 0.00000 ; imides
3653 3654 3655 3656 3
3653 3654 3655 3657 3
3658 3654 3655 3656 3
3658 3654 3655 3657 3
3660 3661 3662 3663 3 33.20422 0.00000 -33.20422 0.00000 0.00000 0.00000 ; methylguanidinium ion
3660 3661 3662 3668 3 20.50160 0.00000 -20.50160 0.00000 0.00000 0.00000 ; imides
3661 3662 3663 3664 3 25.47638 0.00000 -25.47638 0.00000 0.00000 0.00000 ; amides O-C(O)-N-C
3661 3662 3663 3666 3
3661 3662 3663 3667 3
3662 3663 3664 3665 3 16.73600 4.18400 -20.92000 0.00000 0.00000 0.00000 ; carbamates
3666 3663 3664 3665 3
3667 3663 3664 3665 3
3668 3662 3663 3664 3 20.50160 0.00000 -20.50160 0.00000 0.00000 0.00000 ; amides wlj 6/20/97
3668 3662 3663 3666 3
3668 3662 3663 3667 3
3670 3671 3672 3673 3 33.20422 0.00000 -33.20422 0.00000 0.00000 0.00000 ; methylguanidinium ion
3670 3671 3672 3677 3 20.50160 0.00000 -20.50160 0.00000 0.00000 0.00000 ; imides
3671 3672 3673 3674 3 25.47638 0.00000 -25.47638 0.00000 0.00000 0.00000 ; amides O-C(O)-N-C
3671 3672 3673 3675 3
3671 3672 3673 3676 3
3677 3672 3673 3674 3 20.50160 0.00000 -20.50160 0.00000 0.00000 0.00000 ; amides wlj 6/20/97
3677 3672 3673 3675 3
3677 3672 3673 3676 3
3679 3680 3681 3682 3 33.20422 0.00000 -33.20422 0.00000 0.00000 0.00000 ; methylguanidinium ion
3679 3680 3681 3686 3 20.50160 0.00000 -20.50160 0.00000 0.00000 0.00000 ; imides
3680 3681 3682 3683 3 25.47638 0.00000 -25.47638 0.00000 0.00000 0.00000 ; amides O-C(O)-N-C
3680 3681 3682 3684 3
3680 3681 3682 3685 3
3686 3681 3682 3683 3 20.50160 0.00000 -20.50160 0.00000 0.00000 0.00000 ; amides wlj 6/20/97
3686 3681 3682 3684 3
3686 3681 3682 3685 3
3688 3689 3690 3691 3 33.20422 0.00000 -33.20422 0.00000 0.00000 0.00000 ; methylguanidinium ion
3688 3689 3690 3695 3 20.50160 0.00000 -20.50160 0.00000 0.00000 0.00000 ; imides
3689 3690 3691 3692 3 25.47638 0.00000 -25.47638 0.00000 0.00000 0.00000 ; amides O-C(O)-N-C
3689 3690 3691 3693 3
3689 3690 3691 3694 3
3695 3690 3691 3692 3 20.50160 0.00000 -20.50160 0.00000 0.00000 0.00000 ; amides wlj 6/20/97
3695 3690 3691 3693 3
3695 3690 3691 3694 3
3697 3698 3699 3700 3 33.20422 0.00000 -33.20422 0.00000 0.00000 0.00000 ; methylguanidinium ion
3697 3698 3699 3704 3 20.50160 0.00000 -20.50160 0.00000 0.00000 0.00000 ; imides
3698 3699 3700 3701 3 25.47638 0.00000 -25.47638 0.00000 0.00000 0.00000 ; amides O-C(O)-N-C
3698 3699 3700 3702 3
3698 3699 3700 3703 3
3704 3699 3700 3701 3 20.50160 0.00000 -20.50160 0.00000 0.00000 0.00000 ; amides wlj 6/20/97
3704 3699 3700 3702 3
3704 3699 3700 3703 3
3706 3707 3708 3709 3 33.20422 0.00000 -33.20422 0.00000 0.00000 0.00000 ; methylguanidinium ion
3706 3707 3708 3712 3 20.50160 0.00000 -20.50160 0.00000 0.00000 0.00000 ; imides
3707 3708 3709 3710 3
3707 3708 3709 3711 3
3712 3708 3709 3710 3
3712 3708 3709 3711 3
3714 3715 3716 3717 3 33.20422 0.00000 -33.20422 0.00000 0.00000 0.00000 ; methylguanidinium ion
3714 3715 3716 3721 3 20.50160 0.00000 -20.50160 0.00000 0.00000 0.00000 ; imides
3715 3716 3717 3718 3 25.47638 0.00000 -25.47638 0.00000 0.00000 0.00000 ; amides O-C(O)-N-C
3715 3716 3717 3719 3
3715 3716 3717 3720 3
3721 3716 3717 3718 3 20.50160 0.00000 -20.50160 0.00000 0.00000 0.00000 ; amides wlj 6/20/97
3721 3716 3717 3719 3
3721 3716 3717 3720 3
3723 3724 3725 3726 3 33.20422 0.00000 -33.20422 0.00000 0.00000 0.00000 ; methylguanidinium ion
3723 3724 3725 3730 3 20.50160 0.00000 -20.50160 0.00000 0.00000 0.00000 ; imides
3724 3725 3726 3727 3 25.47638 0.00000 -25.47638 0.00000 0.00000 0.00000 ; amides O-C(O)-N-C
3724 3725 3726 3728 3
3724 3725 3726 3729 3
3730 3725 3726 3727 3 20.50160 0.00000 -20.50160 0.00000 0.00000 0.00000 ; amides wlj 6/20/97
3730 3725 3726 3728 3
3730 3725 3726 3729 3
3732 3733 3734 3735 3 33.20422 0.00000 -33.20422 0.00000 0.00000 0.00000 ; methylguanidinium ion
3732 3733 3734 3739 3 20.50160 0.00000 -20.50160 0.00000 0.00000 0.00000 ; imides
3733 3734 3735 3736 3 25.47638 0.00000 -25.47638 0.00000 0.00000 0.00000 ; amides O-C(O)-N-C
3733 3734 3735 3737 3
3733 3734 3735 3738 3
3739 3734 3735 3736 3 20.50160 0.00000 -20.50160 0.00000 0.00000 0.00000 ; amides wlj 6/20/97
3739 3734 3735 3737 3
3739 3734 3735 3738 3
3741 3742 3743 3744 3 33.20422 0.00000 -33.20422 0.00000 0.00000 0.00000 ; methylguanidinium ion
3741 3742 3743 3748 3 20.50160 0.00000 -20.50160 0.00000 0.00000 0.00000 ; imides
3742 3743 3744 3745 3 25.47638 0.00000 -25.47638 0.00000 0.00000 0.00000 ; amides O-C(O)-N-C
3742 3743 3744 3746 3
3742 3743 3744 3747 3
3748 3743 3744 3745 3 20.50160 0.00000 -20.50160 0.00000 0.00000 0.00000 ; amides wlj 6/20/97
3748 3743 3744 3746 3
3748 3743 3744 3747 3
3750 3751 3752 3753 3 33.20422 0.00000 -33.20422 0.00000 0.00000 0.00000 ; methylguanidinium ion
3750 3751 3752 3756 3 20.50160 0.00000 -20.50160 0.00000 0.00000 0.00000 ; imides
3751 3752 3753 3754 3
3751 3752 3753 3755 3
3756 3752 3753 3754 3
3756 3752 3753 3755 3
3758 3759 3760 3761 3 33.20422 0.00000 -33.20422 0.00000 0.00000 0.00000 ; methylguanidinium ion
3758 3759 3760 3765 3 20.50160 0.00000 -20.50160 0.00000 0.00000 0.00000 ; imides
3759 3760 3761 3762 3 25.47638 0.00000 -25.47638 0.00000 0.00000 0.00000 ; amides O-C(O)-N-C
3759 3760 3761 3763 3
3759 3760 3761 3764 3
3765 3760 3761 3762 3 20.50160 0.00000 -20.50160 0.00000 0.00000 0.00000 ; amides wlj 6/20/97
3765 3760 3761 3763 3
3765 3760 3761 3764 3
3767 3768 3769 3770 3 33.20422 0.00000 -33.20422 0.00000 0.00000 0.00000 ; methylguanidinium ion
3767 3768 3769 3775 3 20.50160 0.00000 -20.50160 0.00000 0.00000 0.00000 ; imides
3768 3769 3770 3771 3 25.47638 0.00000 -25.47638 0.00000 0.00000 0.00000 ; amides O-C(O)-N-C
3768 3769 3770 3773 3
3768 3769 3770 3774 3
3769 3770 3771 3772 3 16.73600 4.18400 -20.92000 0.00000 0.00000 0.00000 ; carbamates
3773 3770 3771 3772 3
3774 3770 3771 3772 3
3775 3769 3770 3771 3 20.50160 0.00000 -20.50160 0.00000 0.00000 0.00000 ; amides wlj 6/20/97
3775 3769 3770 3773 3
3775 3769 3770 3774 3
3777 3778 3779 3780 3 33.20422 0.00000 -33.20422 0.00000 0.00000 0.00000 ; methylguanidinium ion
3777 3778 3779 3784 3 20.50160 0.00000 -20.50160 0.00000 0.00000 0.00000 ; imides
3778 3779 3780 3781 3 25.47638 0.00000 -25.47638 0.00000 0.00000 0.00000 ; amides O-C(O)-N-C
3778 3779 3780 3782 3
3778 3779 3780 3783 3
3784 3779 3780 3781 3 20.50160 0.00000 -20.50160 0.00000 0.00000 0.00000 ; amides wlj 6/20/97
3784 3779 3780 3782 3
3784 3779 3780 3783 3
3786 3787 3788 3789 3 33.20422 0.00000 -33.20422 0.00000 0.00000 0.00000 ; methylguanidinium ion
3786 3787 3788 3793 3 20.50160 0.00000 -20.50160 0.00000 0.00000 0.00000 ; imides
3787 3788 3789 3790 3 25.47638 0.00000 -25.47638 0.00000 0.00000 0.00000 ; amides O-C(O)-N-C
3787 3788 3789 3791 3
3787 3788 3789 3792 3
3793 3788 3789 3790 3 20.50160 0.00000 -20.50160 0.00000 0.00000 0.00000 ; amides wlj 6/20/97
3793 3788 3789 3791 3
3793 3788 3789 3792 3
3795 3796 3797 3798 3 33.20422 0.00000 -33.20422 0.00000 0.00000 0.00000 ; methylguanidinium ion
3795 3796 3797 3801 3 20.50160 0.00000 -20.50160 0.00000 0.00000 0.00000 ; imides
3796 3797 3798 3799 3
3796 3797 3798 3800 3
3801 3797 3798 3799 3
3801 3797 3798 3800 3
3803 3804 3805 3806 3 33.20422 0.00000 -33.20422 0.00000 0.00000 0.00000 ; methylguanidinium ion
3803 3804 3805 3810 3 20.50160 0.00000 -20.50160 0.00000 0.00000 0.00000 ; imides
3804 3805 3806 3807 3 25.47638 0.00000 -25.47638 0.00000 0.00000 0.00000 ; amides O-C(O)-N-C
3804 3805 3806 3808 3
3804 3805 3806 3809 3
3810 3805 3806 3807 3 20.50160 0.00000 -20.50160 0.00000 0.00000 0.00000 ; amides wlj 6/20/97
3810 3805 3806 3808 3
3810 3805 3806 3809 3
3812 3813 3814 3815 3 33.20422 0.00000 -33.20422 0.00000 0.00000 0.00000 ; methylguanidinium ion
3812 3813 3814 3818 3 20.50160 0.00000 -20.50160 0.00000 0.00000 0.00000 ; imides
3813 3814 3815 3816 3
3813 3814 3815 3817 3
3818 3814 3815 3816 3
3818 3814 3815 3817 3
3820 3821 3822 3823 3 33.20422 0.00000 -33.20422 0.00000 0.00000 0.00000 ; methylguanidinium ion
3820 3821 3822 3827 3 20.50160 0.00000 -20.50160 0.00000 0.00000 0.00000 ; imides
3821 3822 3823 3824 3 25.47638 0.00000 -25.47638 0.00000 0.00000 0.00000 ; amides O-C(O)-N-C
3821 3822 3823 3825 3
3821 3822 3823 3826 3
3827 3822 3823 3824 3 20.50160 0.00000 -20.50160 0.00000 0.00000 0.00000 ; amides wlj 6/20/97
3827 3822 3823 3825 3
3827 3822 3823 3826 3
3829 3830 3831 3832 3 33.20422 0.00000 -33.20422 0.00000 0.00000 0.00000 ; methylguanidinium ion
3829 3830 3831 3835 3 20.50160 0.00000 -20.50160 0.00000 0.00000 0.00000 ; imides
3830 3831 3832 3833 3
3830 3831 3832 3834 3
3835 3831 3832 3833 3
3835 3831 3832 3834 3
3837 3838 3839 3840 3 33.20422 0.00000 -33.20422 0.00000 0.00000 0.00000 ; methylguanidinium ion
3837 3838 3839 3844 3 20.50160 0.00000 -20.50160 0.00000 0.00000 0.00000 ; imides
3838 3839 3840 3841 3 25.47638 0.00000 -25.47638 0.00000 0.00000 0.00000 ; amides O-C(O)-N-C
3838 3839 3840 3842 3
3838 3839 3840 3843 3
3844 3839 3840 3841 3 20.50160 0.00000 -20.50160 0.00000 0.00000 0.00000 ; amides wlj 6/20/97
3844 3839 3840 3842 3
3844 3839 3840 3843 3
3846 3847 3848 3849 3 33.20422 0.00000 -33.20422 0.00000 0.00000 0.00000 ; methylguanidinium ion
3846 3847 3848 3853 3 20.50160 0.00000 -20.50160 0.00000 0.00000 0.00000 ; imides
3847 3848 3849 3850 3 25.47638 0.00000 -25.47638 0.00000 0.00000 0.00000 ; amides O-C(O)-N-C
3847 3848 3849 3851 3
3847 3848 3849 3852 3
3853 3848 3849 3850 3 20.50160 0.00000 -20.50160 0.00000 0.00000 0.00000 ; amides wlj 6/20/97
3853 3848 3849 3851 3
3853 3848 3849 3852 3
3855 3856 3857 3858 3 33.20422 0.00000 -33.20422 0.00000 0.00000 0.00000 ; methylguanidinium ion
3855 3856 3857 3862 3 20.50160 0.00000 -20.50160 0.00000 0.00000 0.00000 ; imides
3856 3857 3858 3859 3 25.47638 0.00000 -25.47638 0.00000 0.00000 0.00000 ; amides O-C(O)-N-C
3856 3857 3858 3860 3
3856 3857 3858 3861 3
3862 3857 3858 3859 3 20.50160 0.00000 -20.50160 0.00000 0.00000 0.00000 ; amides wlj 6/20/97
3862 3857 3858 3860 3
3862 3857 3858 3861 3
3864 3865 3866 3867 3 33.20422 0.00000 -33.20422 0.00000 0.00000 0.00000 ; methylguanidinium ion
3864 3865 3866 3870 3 20.50160 0.00000 -20.50160 0.00000 0.00000 0.00000 ; imides
3865 3866 3867 3868 3
3865 3866 3867 3869 3
3870 3866 3867 3868 3
3870 3866 3867 3869 3
3872 3873 3874 3875 3 33.20422 0.00000 -33.20422 0.00000 0.00000 0.00000 ; methylguanidinium ion
3872 3873 3874 3879 3 20.50160 0.00000 -20.50160 0.00000 0.00000 0.00000 ; imides
3873 3874 3875 3876 3 25.47638 0.00000 -25.47638 0.00000 0.00000 0.00000 ; amides O-C(O)-N-C
3873 3874 3875 3877 3
3873 3874 3875 3878 3
3879 3874 3875 3876 3 20.50160 0.00000 -20.50160 0.00000 0.00000 0.00000 ; amides wlj 6/20/97
3879 3874 3875 3877 3
3879 3874 3875 3878 3
3881 3882 3883 3884 3 33.20422 0.00000 -33.20422 0.00000 0.00000 0.00000 ; methylguanidinium ion
3881 3882 3883 3889 3 20.50160 0.00000 -20.50160 0.00000 0.00000 0.00000 ; imides
3882 3883 3884 3885 3 25.47638 0.00000 -25.47638 0.00000 0.00000 0.00000 ; amides O-C(O)-N-C
3882 3883 3884 3887 3
3882 3883 3884 3888 3
3883 3884 3885 3886 3 16.73600 4.18400 -20.92000 0.00000 0.00000 0.00000 ; carbamates
3887 3884 3885 3886 3
3888 3884 3885 3886 3
3889 3883 3884 3885 3 20.50160 0.00000 -20.50160 0.00000 0.00000 0.00000 ; amides wlj 6/20/97
3889 3883 3884 3887 3
3889 3883 3884 3888 3
3891 3892 3893 3894 3 33.20422 0.00000 -33.20422 0.00000 0.00000 0.00000 ; methylguanidinium ion
3891 3892 3893 3898 3 20.50160 0.00000 -20.50160 0.00000 0.00000 0.00000 ; imides
3892 3893 3894 3895 3 25.47638 0.00000 -25.47638 0.00000 0.00000 0.00000 ; amides O-C(O)-N-C
3892 3893 3894 3896 3
3892 3893 3894 3897 3
3898 3893 3894 3895 3 20.50160 0.00000 -20.50160 0.00000 0.00000 0.00000 ; amides wlj 6/20/97
3898 3893 3894 3896 3
3898 3893 3894 3897 3
3900 3901 3902 3903 3 33.20422 0.00000 -33.20422 0.00000 0.00000 0.00000 ; methylguanidinium ion
3900 3901 3902 3908 3 20.50160 0.00000 -20.50160 0.00000 0.00000 0.00000 ; imides
3901 3902 3903 3904 3 25.47638 0.00000 -25.47638 0.00000 0.00000 0.00000 ; amides O-C(O)-N-C
3901 3902 3903 3906 3
3901 3902 3903 3907 3
3902 3903 3904 3905 3 16.73600 4.18400 -20.92000 0.00000 0.00000 0.00000 ; carbamates
3906 3903 3904 3905 3
3907 3903 3904 3905 3
3908 3902 3903 3904 3 20.50160 0.00000 -20.50160 0.00000 0.00000 0.00000 ; amides wlj 6/20/97
3908 3902 3903 3906 3
3908 3902 3903 3907 3
3910 3911 3912 3913 3 33.20422 0.00000 -33.20422 0.00000 0.00000 0.00000 ; methylguanidinium ion
3910 3911 3912 3916 3 20.50160 0.00000 -20.50160 0.00000 0.00000 0.00000 ; imides
3911 3912 3913 3914 3
3911 3912 3913 3915 3
3916 3912 3913 3914 3
3916 3912 3913 3915 3
3918 3919 3920 3921 3 33.20422 0.00000 -33.20422 0.00000 0.00000 0.00000 ; methylguanidinium ion
3918 3919 3920 3925 3 20.50160 0.00000 -20.50160 0.00000 0.00000 0.00000 ; imides
3919 3920 3921 3922 3 25.47638 0.00000 -25.47638 0.00000 0.00000 0.00000 ; amides O-C(O)-N-C
3919 3920 3921 3923 3
3919 3920 3921 3924 3
3925 3920 3921 3922 3 20.50160 0.00000 -20.50160 0.00000 0.00000 0.00000 ; amides wlj 6/20/97
3925 3920 3921 3923 3
3925 3920 3921 3924 3
3927 3928 3929 3930 3 33.20422 0.00000 -33.20422 0.00000 0.00000 0.00000 ; methylguanidinium ion
3927 3928 3929 3934 3 20.50160 0.00000 -20.50160 0.00000 0.00000 0.00000 ; imides
3928 3929 3930 3931 3 25.47638 0.00000 -25.47638 0.00000 0.00000 0.00000 ; amides O-C(O)-N-C
3928 3929 3930 3932 3
3928 3929 3930 3933 3
3934 3929 3930 3931 3 20.50160 0.00000 -20.50160 0.00000 0.00000 0.00000 ; amides wlj 6/20/97
3934 3929 3930 3932 3
3934 3929 3930 3933 3
3936 3937 3938 3939 3 33.20422 0.00000 -33.20422 0.00000 0.00000 0.00000 ; methylguanidinium ion
3936 3937 3938 3943 3 20.50160 0.00000 -20.50160 0.00000 0.00000 0.00000 ; imides
3937 3938 3939 3940 3 25.47638 0.00000 -25.47638 0.00000 0.00000 0.00000 ; amides O-C(O)-N-C
3937 3938 3939 3941 3
3937 3938 3939 3942 3
3943 3938 3939 3940 3 20.50160 0.00000 -20.50160 0.00000 0.00000 0.00000 ; amides wlj 6/20/97
3943 3938 3939 3941 3
3943 3938 3939 3942 3
3945 3946 3947 3948 3 33.20422 0.00000 -33.20422 0.00000 0.00000 0.00000 ; methylguanidinium ion
3945 3946 3947 3952 3 20.50160 0.00000 -20.50160 0.00000 0.00000 0.00000 ; imides
3946 3947 3948 3949 3 25.47638 0.00000 -25.47638 0.00000 0.00000 0.00000 ; amides O-C(O)-N-C
3946 3947 3948 3950 3
3946 3947 3948 3951 3
3952 3947 3948 3949 3 20.50160 0.00000 -20.50160 0.00000 0.00000 0.00000 ; amides wlj 6/20/97
3952 3947 3948 3950 3
3952 3947 3948 3951 3
3954 3955 3956 3957 3 33.20422 0.00000 -33.20422 0.00000 0.00000 0.00000 ; methylguanidinium ion
3954 3955 3956 3961 3 20.50160 0.00000 -20.50160 0.00000 0.00000 0.00000 ; imides
3955 3956 3957 3958 3 25.47638 0.00000 -25.47638 0.00000 0.00000 0.00000 ; amides O-C(O)-N-C
3955 3956 3957 3959 3
3955 3956 3957 3960 3
3961 3956 3957 3958 3 20.50160 0.00000 -20.50160 0.00000 0.00000 0.00000 ; amides wlj 6/20/97
3961 3956 3957 3959 3
3961 3956 3957 3960 3
3963 3964 3965 3966 3 33.20422 0.00000 -33.20422 0.00000 0.00000 0.00000 ; methylguanidinium ion
3963 3964 3965 3971 3 20.50160 0.00000 -20.50160 0.00000 0.00000 0.00000 ; imides
3964 3965 3966 3967 3 25.47638 0.00000 -25.47638 0.00000 0.00000 0.00000 ; amides O-C(O)-N-C
3964 3965 3966 3969 3
3964 3965 3966 3970 3
3965 3966 3967 3968 3 16.73600 4.18400 -20.92000 0.00000 0.00000 0.00000 ; carbamates
3969 3966 3967 3968 3
3970 3966 3967 3968 3
3971 3965 3966 3967 3 20.50160 0.00000 -20.50160 0.00000 0.00000 0.00000 ; amides wlj 6/20/97
3971 3965 3966 3969 3
3971 3965 3966 3970 3
3973 3974 3975 3976 3 33.20422 0.00000 -33.20422 0.00000 0.00000 0.00000 ; methylguanidinium ion
3973 3974 3975 3979 3 20.50160 0.00000 -20.50160 0.00000 0.00000 0.00000 ; imides
3974 3975 3976 3977 3
3974 3975 3976 3978 3
3979 3975 3976 3977 3
3979 3975 3976 3978 3
3981 3982 3983 3984 3 33.20422 0.00000 -33.20422 0.00000 0.00000 0.00000 ; methylguanidinium ion
3981 3982 3983 3987 3 20.50160 0.00000 -20.50160 0.00000 0.00000 0.00000 ; imides
3982 3983 3984 3985 3
3982 3983 3984 3986 3
3987 3983 3984 3985 3
3987 3983 3984 3986 3
3989 3990 3991 3992 3 33.20422 0.00000 -33.20422 0.00000 0.00000 0.00000 ; methylguanidinium ion
3989 3990 3991 3996 3 20.50160 0.00000 -20.50160 0.00000 0.00000 0.00000 ; imides
3990 3991 3992 3993 3 25.47638 0.00000 -25.47638 0.00000 0.00000 0.00000 ; amides O-C(O)-N-C
3990 3991 3992 3994 3
3990 3991 3992 3995 3
3996 3991 3992 3993 3 20.50160 0.00000 -20.50160 0.00000 0.00000 0.00000 ; amides wlj 6/20/97
3996 3991 3992 3994 3
3996 3991 3992 3995 3
3998 3999 4000 4001 3 33.20422 0.00000 -33.20422 0.00000 0.00000 0.00000 ; methylguanidinium ion
3998 3999 4000 4005 3 20.50160 0.00000 -20.50160 0.00000 0.00000 0.00000 ; imides
3999 4000 4001 4002 3 25.47638 0.00000 -25.47638 0.00000 0.00000 0.00000 ; amides O-C(O)-N-C
3999 4000 4001 4003 3
3999 4000 4001 4004 3
4005 4000 4001 4002 3 20.50160 0.00000 -20.50160 0.00000 0.00000 0.00000 ; amides wlj 6/20/97
4005 4000 4001 4003 3
4005 4000 4001 4004 3
4007 4008 4009 4010 3 33.20422 0.00000 -33.20422 0.00000 0.00000 0.00000 ; methylguanidinium ion
4007 4008 4009 4014 3 20.50160 0.00000 -20.50160 0.00000 0.00000 0.00000 ; imides
4008 4009 4010 4011 3 25.47638 0.00000 -25.47638 0.00000 0.00000 0.00000 ; amides O-C(O)-N-C
4008 4009 4010 4012 3
4008 4009 4010 4013 3
4014 4009 4010 4011 3 20.50160 0.00000 -20.50160 0.00000 0.00000 0.00000 ; amides wlj 6/20/97
4014 4009 4010 4012 3
4014 4009 4010 4013 3
4016 4017 4018 4019 3 33.20422 0.00000 -33.20422 0.00000 0.00000 0.00000 ; methylguanidinium ion
4016 4017 4018 4023 3 20.50160 0.00000 -20.50160 0.00000 0.00000 0.00000 ; imides
4017 4018 4019 4020 3 25.47638 0.00000 -25.47638 0.00000 0.00000 0.00000 ; amides O-C(O)-N-C
4017 4018 4019 4021 3
4017 4018 4019 4022 3
4023 4018 4019 4020 3 20.50160 0.00000 -20.50160 0.00000 0.00000 0.00000 ; amides wlj 6/20/97
4023 4018 4019 4021 3
4023 4018 4019 4022 3
4025 4026 4027 4028 3 33.20422 0.00000 -33.20422 0.00000 0.00000 0.00000 ; methylguanidinium ion
4025 4026 4027 4032 3 20.50160 0.00000 -20.50160 0.00000 0.00000 0.00000 ; imides
4026 4027 4028 4029 3 25.47638 0.00000 -25.47638 0.00000 0.00000 0.00000 ; amides O-C(O)-N-C
4026 4027 4028 4030 3
4026 4027 4028 4031 3
4032 4027 4028 4029 3 20.50160 0.00000 -20.50160 0.00000 0.00000 0.00000 ; amides wlj 6/20/97
4032 4027 4028 4030 3
4032 4027 4028 4031 3
4034 4035 4036 4037 3 33.20422 0.00000 -33.20422 0.00000 0.00000 0.00000 ; methylguanidinium ion
4034 4035 4036 4041 3 20.50160 0.00000 -20.50160 0.00000 0.00000 0.00000 ; imides
4035 4036 4037 4038 3 25.47638 0.00000 -25.47638 0.00000 0.00000 0.00000 ; amides O-C(O)-N-C
4035 4036 4037 4039 3
4035 4036 4037 4040 3
4041 4036 4037 4038 3 20.50160 0.00000 -20.50160 0.00000 0.00000 0.00000 ; amides wlj 6/20/97
4041 4036 4037 4039 3
4041 4036 4037 4040 3
4043 4044 4045 4046 3 33.20422 0.00000 -33.20422 0.00000 0.00000 0.00000 ; methylguanidinium ion
4043 4044 4045 4049 3 20.50160 0.00000 -20.50160 0.00000 0.00000 0.00000 ; imides
4044 4045 4046 4047 3
4044 4045 4046 4048 3
4049 4045 4046 4047 3
4049 4045 4046 4048 3
4051 4052 4053 4054 3 33.20422 0.00000 -33.20422 0.00000 0.00000 0.00000 ; methylguanidinium ion
4051 4052 4053 4058 3 20.50160 0.00000 -20.50160 0.00000 0.00000 0.00000 ; imides
4052 4053 4054 4055 3 25.47638 0.00000 -25.47638 0.00000 0.00000 0.00000 ; amides O-C(O)-N-C
4052 4053 4054 4056 3
4052 4053 4054 4057 3
4058 4053 4054 4055 3 20.50160 0.00000 -20.50160 0.00000 0.00000 0.00000 ; amides wlj 6/20/97
4058 4053 4054 4056 3
4058 4053 4054 4057 3
4060 4061 4062 4063 3 33.20422 0.00000 -33.20422 0.00000 0.00000 0.00000 ; methylguanidinium ion
4060 4061 4062 4067 3 20.50160 0.00000 -20.50160 0.00000 0.00000 0.00000 ; imides
4061 4062 4063 4064 3 25.47638 0.00000 -25.47638 0.00000 0.00000 0.00000 ; amides O-C(O)-N-C
4061 4062 4063 4065 3
4061 4062 4063 4066 3
4067 4062 4063 4064 3 20.50160 0.00000 -20.50160 0.00000 0.00000 0.00000 ; amides wlj 6/20/97
4067 4062 4063 4065 3
4067 4062 4063 4066 3
4069 4070 4071 4072 3 33.20422 0.00000 -33.20422 0.00000 0.00000 0.00000 ; methylguanidinium ion
4069 4070 4071 4075 3 20.50160 0.00000 -20.50160 0.00000 0.00000 0.00000 ; imides
4070 4071 4072 4073 3
4070 4071 4072 4074 3
4075 4071 4072 4073 3
4075 4071 4072 4074 3
4077 4078 4079 4080 3 33.20422 0.00000 -33.20422 0.00000 0.00000 0.00000 ; methylguanidinium ion
4077 4078 4079 4083 3 20.50160 0.00000 -20.50160 0.00000 0.00000 0.00000 ; imides
4078 4079 4080 4081 3
4078 4079 4080 4082 3
4083 4079 4080 4081 3
4083 4079 4080 4082 3
4085 4086 4087 4088 3 33.20422 0.00000 -33.20422 0.00000 0.00000 0.00000 ; methylguanidinium ion
4085 4086 4087 4093 3 20.50160 0.00000 -20.50160 0.00000 0.00000 0.00000 ; imides
4086 4087 4088 4089 3 25.47638 0.00000 -25.47638 0.00000 0.00000 0.00000 ; amides O-C(O)-N-C
4086 4087 4088 4091 3
4086 4087 4088 4092 3
4087 4088 4089 4090 3 16.73600 4.18400 -20.92000 0.00000 0.00000 0.00000 ; carbamates
4091 4088 4089 4090 3
4092 4088 4089 4090 3
4093 4087 4088 4089 3 20.50160 0.00000 -20.50160 0.00000 0.00000 0.00000 ; amides wlj 6/20/97
4093 4087 4088 4091 3
4093 4087 4088 4092 3
4095 4096 4097 4098 3 33.20422 0.00000 -33.20422 0.00000 0.00000 0.00000 ; methylguanidinium ion
4095 4096 4097 4102 3 20.50160 0.00000 -20.50160 0.00000 0.00000 0.00000 ; imides
4096 4097 4098 4099 3 25.47638 0.00000 -25.47638 0.00000 0.00000 0.00000 ; amides O-C(O)-N-C
4096 4097 4098 4100 3
4096 4097 4098 4101 3
4102 4097 4098 4099 3 20.50160 0.00000 -20.50160 0.00000 0.00000 0.00000 ; amides wlj 6/20/97
4102 4097 4098 4100 3
4102 4097 4098 4101 3
4104 4105 4106 4107 3 33.20422 0.00000 -33.20422 0.00000 0.00000 0.00000 ; methylguanidinium ion
4104 4105 4106 4111 3 20.50160 0.00000 -20.50160 0.00000 0.00000 0.00000 ; imides
4105 4106 4107 4108 3 25.47638 0.00000 -25.47638 0.00000 0.00000 0.00000 ; amides O-C(O)-N-C
4105 4106 4107 4109 3
4105 4106 4107 4110 3
4111 4106 4107 4108 3 20.50160 0.00000 -20.50160 0.00000 0.00000 0.00000 ; amides wlj 6/20/97
4111 4106 4107 4109 3
4111 4106 4107 4110 3
4113 4114 4115 4116 3 33.20422 0.00000 -33.20422 0.00000 0.00000 0.00000 ; methylguanidinium ion
4113 4114 4115 4120 3 20.50160 0.00000 -20.50160 0.00000 0.00000 0.00000 ; imides
4114 4115 4116 4117 3 25.47638 0.00000 -25.47638 0.00000 0.00000 0.00000 ; amides O-C(O)-N-C
4114 4115 4116 4118 3
4114 4115 4116 4119 3
4120 4115 4116 4117 3 20.50160 0.00000 -20.50160 0.00000 0.00000 0.00000 ; amides wlj 6/20/97
4120 4115 4116 4118 3
4120 4115 4116 4119 3
4122 4123 4124 4125 3 33.20422 0.00000 -33.20422 0.00000 0.00000 0.00000 ; methylguanidinium ion
4122 4123 4124 4129 3 20.50160 0.00000 -20.50160 0.00000 0.00000 0.00000 ; imides
4123 4124 4125 4126 3 25.47638 0.00000 -25.47638 0.00000 0.00000 0.00000 ; amides O-C(O)-N-C
4123 4124 4125 4127 3
4123 4124 4125 4128 3
4129 4124 4125 4126 3 20.50160 0.00000 -20.50160 0.00000 0.00000 0.00000 ; amides wlj 6/20/97
4129 4124 4125 4127 3
4129 4124 4125 4128 3
4131 4132 4133 4134 3 33.20422 0.00000 -33.20422 0.00000 0.00000 0.00000 ; methylguanidinium ion
4131 4132 4133 4137 3 20.50160 0.00000 -20.50160 0.00000 0.00000 0.00000 ; imides
4132 4133 4134 4135 3
4132 4133 4134 4136 3
4137 4133 4134 4135 3
4137 4133 4134 4136 3
4139 4140 4141 4142 3 33.20422 0.00000 -33.20422 0.00000 0.00000 0.00000 ; methylguanidinium ion
4139 4140 4141 4146 3 20.50160 0.00000 -20.50160 0.00000 0.00000 0.00000 ; imides
4140 4141 4142 4143 3 25.47638 0.00000 -25.47638 0.00000 0.00000 0.00000 ; amides O-C(O)-N-C
4140 4141 4142 4144 3
4140 4141 4142 4145 3
4146 4141 4142 4143 3 20.50160 0.00000 -20.50160 0.00000 0.00000 0.00000 ; amides wlj 6/20/97
4146 4141 4142 4144 3
4146 4141 4142 4145 3
4148 4149 4150 4151 3 33.20422 0.00000 -33.20422 0.00000 0.00000 0.00000 ; methylguanidinium ion
4148 4149 4150 4154 3 20.50160 0.00000 -20.50160 0.00000 0.00000 0.00000 ; imides
4149 4150 4151 4152 3
4149 4150 4151 4153 3
4154 4150 4151 4152 3
4154 4150 4151 4153 3
4156 4157 4158 4159 3 33.20422 0.00000 -33.20422 0.00000 0.00000 0.00000 ; methylguanidinium ion
4156 4157 4158 4163 3 20.50160 0.00000 -20.50160 0.00000 0.00000 0.00000 ; imides
4157 4158 4159 4160 3 25.47638 0.00000 -25.47638 0.00000 0.00000 0.00000 ; amides O-C(O)-N-C
4157 4158 4159 4161 3
4157 4158 4159 4162 3
4163 4158 4159 4160 3 20.50160 0.00000 -20.50160 0.00000 0.00000 0.00000 ; amides wlj 6/20/97
4163 4158 4159 4161 3
4163 4158 4159 4162 3
4165 4166 4167 4168 3 33.20422 0.00000 -33.20422 0.00000 0.00000 0.00000 ; methylguanidinium ion
4165 4166 4167 4171 3 20.50160 0.00000 -20.50160 0.00000 0.00000 0.00000 ; imides
4166 4167 4168 4169 3
4166 4167 4168 4170 3
4171 4167 4168 4169 3
4171 4167 4168 4170 3
4173 4174 4175 4176 3 33.20422 0.00000 -33.20422 0.00000 0.00000 0.00000 ; methylguanidinium ion
4173 4174 4175 4181 3 20.50160 0.00000 -20.50160 0.00000 0.00000 0.00000 ; imides
4174 4175 4176 4177 3 25.47638 0.00000 -25.47638 0.00000 0.00000 0.00000 ; amides O-C(O)-N-C
4174 4175 4176 4179 3
4174 4175 4176 4180 3
4175 4176 4177 4178 3 16.73600 4.18400 -20.92000 0.00000 0.00000 0.00000 ; carbamates
4179 4176 4177 4178 3
4180 4176 4177 4178 3
4181 4175 4176 4177 3 20.50160 0.00000 -20.50160 0.00000 0.00000 0.00000 ; amides wlj 6/20/97
4181 4175 4176 4179 3
4181 4175 4176 4180 3
4183 4184 4185 4186 3 33.20422 0.00000 -33.20422 0.00000 0.00000 0.00000 ; methylguanidinium ion
4183 4184 4185 4190 3 20.50160 0.00000 -20.50160 0.00000 0.00000 0.00000 ; imides
4184 4185 4186 4187 3 25.47638 0.00000 -25.47638 0.00000 0.00000 0.00000 ; amides O-C(O)-N-C
4184 4185 4186 4188 3
4184 4185 4186 4189 3
4190 4185 4186 4187 3 20.50160 0.00000 -20.50160 0.00000 0.00000 0.00000 ; amides wlj 6/20/97
4190 4185 4186 4188 3
4190 4185 4186 4189 3
4192 4193 4194 4195 3 33.20422 0.00000 -33.20422 0.00000 0.00000 0.00000 ; methylguanidinium ion
4192 4193 4194 4200 3 20.50160 0.00000 -20.50160 0.00000 0.00000 0.00000 ; imides
4193 4194 4195 4196 3 25.47638 0.00000 -25.47638 0.00000 0.00000 0.00000 ; amides O-C(O)-N-C
4193 4194 4195 4198 3
4193 4194 4195 4199 3
4194 4195 4196 4197 3 16.73600 4.18400 -20.92000 0.00000 0.00000 0.00000 ; carbamates
4198 4195 4196 4197 3
4199 4195 4196 4197 3
4200 4194 4195 4196 3 20.50160 0.00000 -20.50160 0.00000 0.00000 0.00000 ; amides wlj 6/20/97
4200 4194 4195 4198 3
4200 4194 4195 4199 3
4202 4203 4204 4205 3 33.20422 0.00000 -33.20422 0.00000 0.00000 0.00000 ; methylguanidinium ion
4202 4203 4204 4209 3 20.50160 0.00000 -20.50160 0.00000 0.00000 0.00000 ; imides
4203 4204 4205 4206 3 25.47638 0.00000 -25.47638 0.00000 0.00000 0.00000 ; amides O-C(O)-N-C
4203 4204 4205 4207 3
4203 4204 4205 4208 3
4209 4204 4205 4206 3 20.50160 0.00000 -20.50160 0.00000 0.00000 0.00000 ; amides wlj 6/20/97
4209 4204 4205 4207 3
4209 4204 4205 4208 3
4211 4212 4213 4214 3 33.20422 0.00000 -33.20422 0.00000 0.00000 0.00000 ; methylguanidinium ion
4211 4212 4213 4218 3 20.50160 0.00000 -20.50160 0.00000 0.00000 0.00000 ; imides
4212 4213 4214 4215 3 25.47638 0.00000 -25.47638 0.00000 0.00000 0.00000 ; amides O-C(O)-N-C
4212 4213 4214 4216 3
4212 4213 4214 4217 3
4218 4213 4214 4215 3 20.50160 0.00000 -20.50160 0.00000 0.00000 0.00000 ; amides wlj 6/20/97
4218 4213 4214 4216 3
4218 4213 4214 4217 3
4220 4221 4222 4223 3 33.20422 0.00000 -33.20422 0.00000 0.00000 0.00000 ; methylguanidinium ion
4220 4221 4222 4228 3 20.50160 0.00000 -20.50160 0.00000 0.00000 0.00000 ; imides
4221 4222 4223 4224 3 25.47638 0.00000 -25.47638 0.00000 0.00000 0.00000 ; amides O-C(O)-N-C
4221 4222 4223 4226 3
4221 4222 4223 4227 3
4222 4223 4224 4225 3 16.73600 4.18400 -20.92000 0.00000 0.00000 0.00000 ; carbamates
4226 4223 4224 4225 3
4227 4223 4224 4225 3
4228 4222 4223 4224 3 20.50160 0.00000 -20.50160 0.00000 0.00000 0.00000 ; amides wlj 6/20/97
4228 4222 4223 4226 3
4228 4222 4223 4227 3
4230 4231 4232 4233 3 33.20422 0.00000 -33.20422 0.00000 0.00000 0.00000 ; methylguanidinium ion
4230 4231 4232 4237 3 20.50160 0.00000 -20.50160 0.00000 0.00000 0.00000 ; imides
4231 4232 4233 4234 3 25.47638 0.00000 -25.47638 0.00000 0.00000 0.00000 ; amides O-C(O)-N-C
4231 4232 4233 4235 3
4231 4232 4233 4236 3
4237 4232 4233 4234 3 20.50160 0.00000 -20.50160 0.00000 0.00000 0.00000 ; amides wlj 6/20/97
4237 4232 4233 4235 3
4237 4232 4233 4236 3
4239 4240 4241 4242 3 33.20422 0.00000 -33.20422 0.00000 0.00000 0.00000 ; methylguanidinium ion
4239 4240 4241 4246 3 20.50160 0.00000 -20.50160 0.00000 0.00000 0.00000 ; imides
4240 4241 4242 4243 3 25.47638 0.00000 -25.47638 0.00000 0.00000 0.00000 ; amides O-C(O)-N-C
4240 4241 4242 4244 3
4240 4241 4242 4245 3
4246 4241 4242 4243 3 20.50160 0.00000 -20.50160 0.00000 0.00000 0.00000 ; amides wlj 6/20/97
4246 4241 4242 4244 3
4246 4241 4242 4245 3
4248 4249 4250 4251 3 33.20422 0.00000 -33.20422 0.00000 0.00000 0.00000 ; methylguanidinium ion
4248 4249 4250 4255 3 20.50160 0.00000 -20.50160 0.00000 0.00000 0.00000 ; imides
4249 4250 4251 4252 3 25.47638 0.00000 -25.47638 0.00000 0.00000 0.00000 ; amides O-C(O)-N-C
4249 4250 4251 4253 3
4249 4250 4251 4254 3
4255 4250 4251 4252 3 20.50160 0.00000 -20.50160 0.00000 0.00000 0.00000 ; amides wlj 6/20/97
4255 4250 4251 4253 3
4255 4250 4251 4254 3
4257 4258 4259 4260 3 33.20422 0.00000 -33.20422 0.00000 0.00000 0.00000 ; methylguanidinium ion
4257 4258 4259 4265 3 20.50160 0.00000 -20.50160 0.00000 0.00000 0.00000 ; imides
4258 4259 4260 4261 3 25.47638 0.00000 -25.47638 0.00000 0.00000 0.00000 ; amides O-C(O)-N-C
4258 4259 4260 4263 3
4258 4259 4260 4264 3
4259 4260 4261 4262 3 16.73600 4.18400 -20.92000 0.00000 0.00000 0.00000 ; carbamates
4263 4260 4261 4262 3
4264 4260 4261 4262 3
4265 4259 4260 4261 3 20.50160 0.00000 -20.50160 0.00000 0.00000 0.00000 ; amides wlj 6/20/97
4265 4259 4260 4263 3
4265 4259 4260 4264 3
4267 4268 4269 4270 3 33.20422 0.00000 -33.20422 0.00000 0.00000 0.00000 ; methylguanidinium ion
4267 4268 4269 4274 3 20.50160 0.00000 -20.50160 0.00000 0.00000 0.00000 ; imides
4268 4269 4270 4271 3 25.47638 0.00000 -25.47638 0.00000 0.00000 0.00000 ; amides O-C(O)-N-C
4268 4269 4270 4272 3
4268 4269 4270 4273 3
4274 4269 4270 4271 3 20.50160 0.00000 -20.50160 0.00000 0.00000 0.00000 ; amides wlj 6/20/97
4274 4269 4270 4272 3
4274 4269 4270 4273 3
4276 4277 4278 4279 3 33.20422 0.00000 -33.20422 0.00000 0.00000 0.00000 ; methylguanidinium ion
4276 4277 4278 4282 3 20.50160 0.00000 -20.50160 0.00000 0.00000 0.00000 ; imides
4277 4278 4279 4280 3
4277 4278 4279 4281 3
4282 4278 4279 4280 3
4282 4278 4279 4281 3
4284 4285 4286 4287 3 33.20422 0.00000 -33.20422 0.00000 0.00000 0.00000 ; methylguanidinium ion
4284 4285 4286 4292 3 20.50160 0.00000 -20.50160 0.00000 0.00000 0.00000 ; imides
4285 4286 4287 4288 3 25.47638 0.00000 -25.47638 0.00000 0.00000 0.00000 ; amides O-C(O)-N-C
4285 4286 4287 4290 3
4285 4286 4287 4291 3
4286 4287 4288 4289 3 16.73600 4.18400 -20.92000 0.00000 0.00000 0.00000 ; carbamates
4290 4287 4288 4289 3
4291 4287 4288 4289 3
4292 4286 4287 4288 3 20.50160 0.00000 -20.50160 0.00000 0.00000 0.00000 ; amides wlj 6/20/97
4292 4286 4287 4290 3
4292 4286 4287 4291 3
4294 4295 4296 4297 3 33.20422 0.00000 -33.20422 0.00000 0.00000 0.00000 ; methylguanidinium ion
4294 4295 4296 4301 3 20.50160 0.00000 -20.50160 0.00000 0.00000 0.00000 ; imides
4295 4296 4297 4298 3 25.47638 0.00000 -25.47638 0.00000 0.00000 0.00000 ; amides O-C(O)-N-C
4295 4296 4297 4299 3
4295 4296 4297 4300 3
4301 4296 4297 4298 3 20.50160 0.00000 -20.50160 0.00000 0.00000 0.00000 ; amides wlj 6/20/97
4301 4296 4297 4299 3
4301 4296 4297 4300 3
4303 4304 4305 4306 3 33.20422 0.00000 -33.20422 0.00000 0.00000 0.00000 ; methylguanidinium ion
4303 4304 4305 4310 3 20.50160 0.00000 -20.50160 0.00000 0.00000 0.00000 ; imides
4304 4305 4306 4307 3 25.47638 0.00000 -25.47638 0.00000 0.00000 0.00000 ; amides O-C(O)-N-C
4304 4305 4306 4308 3
4304 4305 4306 4309 3
4310 4305 4306 4307 3 20.50160 0.00000 -20.50160 0.00000 0.00000 0.00000 ; amides wlj 6/20/97
4310 4305 4306 4308 3
4310 4305 4306 4309 3
4312 4313 4314 4315 3 33.20422 0.00000 -33.20422 0.00000 0.00000 0.00000 ; methylguanidinium ion
4312 4313 4314 4318 3 20.50160 0.00000 -20.50160 0.00000 0.00000 0.00000 ; imides
4313 4314 4315 4316 3
4313 4314 4315 4317 3
4318 4314 4315 4316 3
4318 4314 4315 4317 3
4320 4321 4322 4323 3 33.20422 0.00000 -33.20422 0.00000 0.00000 0.00000 ; methylguanidinium ion
4320 4321 4322 4327 3 20.50160 0.00000 -20.50160 0.00000 0.00000 0.00000 ; imides
4321 4322 4323 4324 3 25.47638 0.00000 -25.47638 0.00000 0.00000 0.00000 ; amides O-C(O)-N-C
4321 4322 4323 4325 3
4321 4322 4323 4326 3
4327 4322 4323 4324 3 20.50160 0.00000 -20.50160 0.00000 0.00000 0.00000 ; amides wlj 6/20/97
4327 4322 4323 4325 3
4327 4322 4323 4326 3
4329 4330 4331 4332 3 33.20422 0.00000 -33.20422 0.00000 0.00000 0.00000 ; methylguanidinium ion
4329 4330 4331 4335 3 20.50160 0.00000 -20.50160 0.00000 0.00000 0.00000 ; imides
4330 4331 4332 4333 3
4330 4331 4332 4334 3
4335 4331 4332 4333 3
4335 4331 4332 4334 3
4337 4338 4339 4340 3 33.20422 0.00000 -33.20422 0.00000 0.00000 0.00000 ; methylguanidinium ion
4337 4338 4339 4344 3 20.50160 0.00000 -20.50160 0.00000 0.00000 0.00000 ; imides
4338 4339 4340 4341 3 25.47638 0.00000 -25.47638 0.00000 0.00000 0.00000 ; amides O-C(O)-N-C
4338 4339 4340 4342 3
4338 4339 4340 4343 3
4344 4339 4340 4341 3 20.50160 0.00000 -20.50160 0.00000 0.00000 0.00000 ; amides wlj 6/20/97
4344 4339 4340 4342 3
4344 4339 4340 4343 3
4346 4347 4348 4349 3 33.20422 0.00000 -33.20422 0.00000 0.00000 0.00000 ; methylguanidinium ion
4346 4347 4348 4353 3 20.50160 0.00000 -20.50160 0.00000 0.00000 0.00000 ; imides
4347 4348 4349 4350 3 25.47638 0.00000 -25.47638 0.00000 0.00000 0.00000 ; amides O-C(O)-N-C
4347 4348 4349 4351 3
4347 4348 4349 4352 3
4353 4348 4349 4350 3 20.50160 0.00000 -20.50160 0.00000 0.00000 0.00000 ; amides wlj 6/20/97
4353 4348 4349 4351 3
4353 4348 4349 4352 3
4355 4356 4357 4358 3 33.20422 0.00000 -33.20422 0.00000 0.00000 0.00000 ; methylguanidinium ion
4355 4356 4357 4361 3 20.50160 0.00000 -20.50160 0.00000 0.00000 0.00000 ; imides
4356 4357 4358 4359 3
4356 4357 4358 4360 3
4361 4357 4358 4359 3
4361 4357 4358 4360 3
4363 4364 4365 4366 3 33.20422 0.00000 -33.20422 0.00000 0.00000 0.00000 ; methylguanidinium ion
4363 4364 4365 4369 3 20.50160 0.00000 -20.50160 0.00000 0.00000 0.00000 ; imides
4364 4365 4366 4367 3
4364 4365 4366 4368 3
4369 4365 4366 4367 3
4369 4365 4366 4368 3
4371 4372 4373 4374 3 33.20422 0.00000 -33.20422 0.00000 0.00000 0.00000 ; methylguanidinium ion
4371 4372 4373 4377 3 20.50160 0.00000 -20.50160 0.00000 0.00000 0.00000 ; imides
4372 4373 4374 4375 3
4372 4373 4374 4376 3
4377 4373 4374 4375 3
4377 4373 4374 4376 3
4379 4380 4381 4382 3 33.20422 0.00000 -33.20422 0.00000 0.00000 0.00000 ; methylguanidinium ion
4379 4380 4381 4386 3 20.50160 0.00000 -20.50160 0.00000 0.00000 0.00000 ; imides
4380 4381 4382 4383 3 25.47638 0.00000 -25.47638 0.00000 0.00000 0.00000 ; amides O-C(O)-N-C
4380 4381 4382 4384 3
4380 4381 4382 4385 3
4386 4381 4382 4383 3 20.50160 0.00000 -20.50160 0.00000 0.00000 0.00000 ; amides wlj 6/20/97
4386 4381 4382 4384 3
4386 4381 4382 4385 3
4388 4389 4390 4391 3 33.20422 0.00000 -33.20422 0.00000 0.00000 0.00000 ; methylguanidinium ion
4388 4389 4390 4395 3 20.50160 0.00000 -20.50160 0.00000 0.00000 0.00000 ; imides
4389 4390 4391 4392 3 25.47638 0.00000 -25.47638 0.00000 0.00000 0.00000 ; amides O-C(O)-N-C
4389 4390 4391 4393 3
4389 4390 4391 4394 3
4395 4390 4391 4392 3 20.50160 0.00000 -20.50160 0.00000 0.00000 0.00000 ; amides wlj 6/20/97
4395 4390 4391 4393 3
4395 4390 4391 4394 3
4397 4398 4399 4400 3 33.20422 0.00000 -33.20422 0.00000 0.00000 0.00000 ; methylguanidinium ion
4397 4398 4399 4405 3 20.50160 0.00000 -20.50160 0.00000 0.00000 0.00000 ; imides
4398 4399 4400 4401 3 25.47638 0.00000 -25.47638 0.00000 0.00000 0.00000 ; amides O-C(O)-N-C
4398 4399 4400 4403 3
4398 4399 4400 4404 3
4399 4400 4401 4402 3 16.73600 4.18400 -20.92000 0.00000 0.00000 0.00000 ; carbamates
4403 4400 4401 4402 3
4404 4400 4401 4402 3
4405 4399 4400 4401 3 20.50160 0.00000 -20.50160 0.00000 0.00000 0.00000 ; amides wlj 6/20/97
4405 4399 4400 4403 3
4405 4399 4400 4404 3
4407 4408 4409 4410 3 33.20422 0.00000 -33.20422 0.00000 0.00000 0.00000 ; methylguanidinium ion
4407 4408 4409 4414 3 20.50160 0.00000 -20.50160 0.00000 0.00000 0.00000 ; imides
4408 4409 4410 4411 3 25.47638 0.00000 -25.47638 0.00000 0.00000 0.00000 ; amides O-C(O)-N-C
4408 4409 4410 4412 3
4408 4409 4410 4413 3
4414 4409 4410 4411 3 20.50160 0.00000 -20.50160 0.00000 0.00000 0.00000 ; amides wlj 6/20/97
4414 4409 4410 4412 3
4414 4409 4410 4413 3
4416 4417 4418 4419 3 33.20422 0.00000 -33.20422 0.00000 0.00000 0.00000 ; methylguanidinium ion
4416 4417 4418 4423 3 20.50160 0.00000 -20.50160 0.00000 0.00000 0.00000 ; imides
4417 4418 4419 4420 3 25.47638 0.00000 -25.47638 0.00000 0.00000 0.00000 ; amides O-C(O)-N-C
4417 4418 4419 4421 3
4417 4418 4419 4422 3
4423 4418 4419 4420 3 20.50160 0.00000 -20.50160 0.00000 0.00000 0.00000 ; amides wlj 6/20/97
4423 4418 4419 4421 3
4423 4418 4419 4422 3
4425 4426 4427 4428 3 33.20422 0.00000 -33.20422 0.00000 0.00000 0.00000 ; methylguanidinium ion
4425 4426 4427 4432 3 20.50160 0.00000 -20.50160 0.00000 0.00000 0.00000 ; imides
4426 4427 4428 4429 3 25.47638 0.00000 -25.47638 0.00000 0.00000 0.00000 ; amides O-C(O)-N-C
4426 4427 4428 4430 3
4426 4427 4428 4431 3
4432 4427 4428 4429 3 20.50160 0.00000 -20.50160 0.00000 0.00000 0.00000 ; amides wlj 6/20/97
4432 4427 4428 4430 3
4432 4427 4428 4431 3
4434 4435 4436 4437 3 33.20422 0.00000 -33.20422 0.00000 0.00000 0.00000 ; methylguanidinium ion
4434 4435 4436 4441 3 20.50160 0.00000 -20.50160 0.00000 0.00000 0.00000 ; imides
4435 4436 4437 4438 3 25.47638 0.00000 -25.47638 0.00000 0.00000 0.00000 ; amides O-C(O)-N-C
4435 4436 4437 4439 3
4435 4436 4437 4440 3
4441 4436 4437 4438 3 20.50160 0.00000 -20.50160 0.00000 0.00000 0.00000 ; amides wlj 6/20/97
4441 4436 4437 4439 3
4441 4436 4437 4440 3
4443 4444 4445 4446 3 33.20422 0.00000 -33.20422 0.00000 0.00000 0.00000 ; methylguanidinium ion
4443 4444 4445 4450 3 20.50160 0.00000 -20.50160 0.00000 0.00000 0.00000 ; imides
4444 4445 4446 4447 3 25.47638 0.00000 -25.47638 0.00000 0.00000 0.00000 ; amides O-C(O)-N-C
4444 4445 4446 4448 3
4444 4445 4446 4449 3
4450 4445 4446 4447 3 20.50160 0.00000 -20.50160 0.00000 0.00000 0.00000 ; amides wlj 6/20/97
4450 4445 4446 4448 3
4450 4445 4446 4449 3
4452 4453 4454 4455 3 33.20422 0.00000 -33.20422 0.00000 0.00000 0.00000 ; methylguanidinium ion
4452 4453 4454 4459 3 20.50160 0.00000 -20.50160 0.00000 0.00000 0.00000 ; imides
4453 4454 4455 4456 3 25.47638 0.00000 -25.47638 0.00000 0.00000 0.00000 ; amides O-C(O)-N-C
4453 4454 4455 4457 3
4453 4454 4455 4458 3
4459 4454 4455 4456 3 20.50160 0.00000 -20.50160 0.00000 0.00000 0.00000 ; amides wlj 6/20/97
4459 4454 4455 4457 3
4459 4454 4455 4458 3
4461 4462 4463 4464 3 33.20422 0.00000 -33.20422 0.00000 0.00000 0.00000 ; methylguanidinium ion
4461 4462 4463 4468 3 20.50160 0.00000 -20.50160 0.00000 0.00000 0.00000 ; imides
4462 4463 4464 4465 3 25.47638 0.00000 -25.47638 0.00000 0.00000 0.00000 ; amides O-C(O)-N-C
4462 4463 4464 4466 3
4462 4463 4464 4467 3
4468 4463 4464 4465 3 20.50160 0.00000 -20.50160 0.00000 0.00000 0.00000 ; amides wlj 6/20/97
4468 4463 4464 4466 3
4468 4463 4464 4467 3
4470 4471 4472 4473 3 33.20422 0.00000 -33.20422 0.00000 0.00000 0.00000 ; methylguanidinium ion
4470 4471 4472 4477 3 20.50160 0.00000 -20.50160 0.00000 0.00000 0.00000 ; imides
4471 4472 4473 4474 3 25.47638 0.00000 -25.47638 0.00000 0.00000 0.00000 ; amides O-C(O)-N-C
4471 4472 4473 4475 3
4471 4472 4473 4476 3
4477 4472 4473 4474 3 20.50160 0.00000 -20.50160 0.00000 0.00000 0.00000 ; amides wlj 6/20/97
4477 4472 4473 4475 3
4477 4472 4473 4476 3
4479 4480 4481 4482 3 33.20422 0.00000 -33.20422 0.00000 0.00000 0.00000 ; methylguanidinium ion
4479 4480 4481 4486 3 20.50160 0.00000 -20.50160 0.00000 0.00000 0.00000 ; imides
4480 4481 4482 4483 3 25.47638 0.00000 -25.47638 0.00000 0.00000 0.00000 ; amides O-C(O)-N-C
4480 4481 4482 4484 3
4480 4481 4482 4485 3
4486 4481 4482 4483 3 20.50160 0.00000 -20.50160 0.00000 0.00000 0.00000 ; amides wlj 6/20/97
4486 4481 4482 4484 3
4486 4481 4482 4485 3
4488 4489 4490 4491 3 33.20422 0.00000 -33.20422 0.00000 0.00000 0.00000 ; methylguanidinium ion
4488 4489 4490 4494 3 20.50160 0.00000 -20.50160 0.00000 0.00000 0.00000 ; imides
4489 4490 4491 4492 3
4489 4490 4491 4493 3
4494 4490 4491 4492 3
4494 4490 4491 4493 3
4496 4497 4498 4499 3 33.20422 0.00000 -33.20422 0.00000 0.00000 0.00000 ; methylguanidinium ion
4496 4497 4498 4503 3 20.50160 0.00000 -20.50160 0.00000 0.00000 0.00000 ; imides
4497 4498 4499 4500 3 25.47638 0.00000 -25.47638 0.00000 0.00000 0.00000 ; amides O-C(O)-N-C
4497 4498 4499 4501 3
4497 4498 4499 4502 3
4503 4498 4499 4500 3 20.50160 0.00000 -20.50160 0.00000 0.00000 0.00000 ; amides wlj 6/20/97
4503 4498 4499 4501 3
4503 4498 4499 4502 3
4505 4506 4507 4508 3 33.20422 0.00000 -33.20422 0.00000 0.00000 0.00000 ; methylguanidinium ion
4505 4506 4507 4511 3 20.50160 0.00000 -20.50160 0.00000 0.00000 0.00000 ; imides
4506 4507 4508 4509 3
4506 4507 4508 4510 3
4511 4507 4508 4509 3
4511 4507 4508 4510 3
4513 4514 4515 4516 3 33.20422 0.00000 -33.20422 0.00000 0.00000 0.00000 ; methylguanidinium ion
4513 4514 4515 4520 3 20.50160 0.00000 -20.50160 0.00000 0.00000 0.00000 ; imides
4514 4515 4516 4517 3 25.47638 0.00000 -25.47638 0.00000 0.00000 0.00000 ; amides O-C(O)-N-C
4514 4515 4516 4518 3
4514 4515 4516 4519 3
4520 4515 4516 4517 3 20.50160 0.00000 -20.50160 0.00000 0.00000 0.00000 ; amides wlj 6/20/97
4520 4515 4516 4518 3
4520 4515 4516 4519 3
4522 4523 4524 4525 3 33.20422 0.00000 -33.20422 0.00000 0.00000 0.00000 ; methylguanidinium ion
4522 4523 4524 4528 3 20.50160 0.00000 -20.50160 0.00000 0.00000 0.00000 ; imides
4523 4524 4525 4526 3
4523 4524 4525 4527 3
4528 4524 4525 4526 3
4528 4524 4525 4527 3
4530 4531 4532 4533 3 33.20422 0.00000 -33.20422 0.00000 0.00000 0.00000 ; methylguanidinium ion
4530 4531 4532 4537 3 20.50160 0.00000 -20.50160 0.00000 0.00000 0.00000 ; imides
4531 4532 4533 4534 3 25.47638 0.00000 -25.47638 0.00000 0.00000 0.00000 ; amides O-C(O)-N-C
4531 4532 4533 4535 3
4531 4532 4533 4536 3
4537 4532 4533 4534 3 20.50160 0.00000 -20.50160 0.00000 0.00000 0.00000 ; amides wlj 6/20/97
4537 4532 4533 4535 3
4537 4532 4533 4536 3
4539 4540 4541 4542 3 33.20422 0.00000 -33.20422 0.00000 0.00000 0.00000 ; methylguanidinium ion
4539 4540 4541 4545 3 20.50160 0.00000 -20.50160 0.00000 0.00000 0.00000 ; imides
4540 4541 4542 4543 3
4540 4541 4542 4544 3
4545 4541 4542 4543 3
4545 4541 4542 4544 3
4547 4548 4549 4550 3 33.20422 0.00000 -33.20422 0.00000 0.00000 0.00000 ; methylguanidinium ion
4547 4548 4549 4553 3 20.50160 0.00000 -20.50160 0.00000 0.00000 0.00000 ; imides
4548 4549 4550 4551 3
4548 4549 4550 4552 3
4553 4549 4550 4551 3
4553 4549 4550 4552 3
4555 4556 4557 4558 3 33.20422 0.00000 -33.20422 0.00000 0.00000 0.00000 ; methylguanidinium ion
4555 4556 4557 4562 3 20.50160 0.00000 -20.50160 0.00000 0.00000 0.00000 ; imides
4556 4557 4558 4559 3 25.47638 0.00000 -25.47638 0.00000 0.00000 0.00000 ; amides O-C(O)-N-C
4556 4557 4558 4560 3
4556 4557 4558 4561 3
4562 4557 4558 4559 3 20.50160 0.00000 -20.50160 0.00000 0.00000 0.00000 ; amides wlj 6/20/97
4562 4557 4558 4560 3
4562 4557 4558 4561 3
4564 4565 4566 4567 3 33.20422 0.00000 -33.20422 0.00000 0.00000 0.00000 ; methylguanidinium ion
4564 4565 4566 4571 3 20.50160 0.00000 -20.50160 0.00000 0.00000 0.00000 ; imides
4565 4566 4567 4568 3 25.47638 0.00000 -25.47638 0.00000 0.00000 0.00000 ; amides O-C(O)-N-C
4565 4566 4567 4569 3
4565 4566 4567 4570 3
4571 4566 4567 4568 3 20.50160 0.00000 -20.50160 0.00000 0.00000 0.00000 ; amides wlj 6/20/97
4571 4566 4567 4569 3
4571 4566 4567 4570 3
4573 4574 4575 4576 3 33.20422 0.00000 -33.20422 0.00000 0.00000 0.00000 ; methylguanidinium ion
4573 4574 4575 4579 3 20.50160 0.00000 -20.50160 0.00000 0.00000 0.00000 ; imides
4574 4575 4576 4577 3
4574 4575 4576 4578 3
4579 4575 4576 4577 3
4579 4575 4576 4578 3
4581 4582 4583 4584 3 33.20422 0.00000 -33.20422 0.00000 0.00000 0.00000 ; methylguanidinium ion
4581 4582 4583 4588 3 20.50160 0.00000 -20.50160 0.00000 0.00000 0.00000 ; imides
4582 4583 4584 4585 3 25.47638 0.00000 -25.47638 0.00000 0.00000 0.00000 ; amides O-C(O)-N-C
4582 4583 4584 4586 3
4582 4583 4584 4587 3
4588 4583 4584 4585 3 20.50160 0.00000 -20.50160 0.00000 0.00000 0.00000 ; amides wlj 6/20/97
4588 4583 4584 4586 3
4588 4583 4584 4587 3
4590 4591 4592 4593 3 33.20422 0.00000 -33.20422 0.00000 0.00000 0.00000 ; methylguanidinium ion
4590 4591 4592 4597 3 20.50160 0.00000 -20.50160 0.00000 0.00000 0.00000 ; imides
4591 4592 4593 4594 3 25.47638 0.00000 -25.47638 0.00000 0.00000 0.00000 ; amides O-C(O)-N-C
4591 4592 4593 4595 3
4591 4592 4593 4596 3
4597 4592 4593 4594 3 20.50160 0.00000 -20.50160 0.00000 0.00000 0.00000 ; amides wlj 6/20/97
4597 4592 4593 4595 3
4597 4592 4593 4596 3
4599 4600 4601 4602 3 33.20422 0.00000 -33.20422 0.00000 0.00000 0.00000 ; methylguanidinium ion
4599 4600 4601 4606 3 20.50160 0.00000 -20.50160 0.00000 0.00000 0.00000 ; imides
4600 4601 4602 4603 3 25.47638 0.00000 -25.47638 0.00000 0.00000 0.00000 ; amides O-C(O)-N-C
4600 4601 4602 4604 3
4600 4601 4602 4605 3
4606 4601 4602 4603 3 20.50160 0.00000 -20.50160 0.00000 0.00000 0.00000 ; amides wlj 6/20/97
4606 4601 4602 4604 3
4606 4601 4602 4605 3
4608 4609 4610 4611 3 33.20422 0.00000 -33.20422 0.00000 0.00000 0.00000 ; methylguanidinium ion
4608 4609 4610 4614 3 20.50160 0.00000 -20.50160 0.00000 0.00000 0.00000 ; imides
4609 4610 4611 4612 3
4609 4610 4611 4613 3
4614 4610 4611 4612 3
4614 4610 4611 4613 3
4616 4617 4618 4619 3 33.20422 0.00000 -33.20422 0.00000 0.00000 0.00000 ; methylguanidinium ion
4616 4617 4618 4623 3 20.50160 0.00000 -20.50160 0.00000 0.00000 0.00000 ; imides
4617 4618 4619 4620 3 25.47638 0.00000 -25.47638 0.00000 0.00000 0.00000 ; amides O-C(O)-N-C
4617 4618 4619 4621 3
4617 4618 4619 4622 3
4623 4618 4619 4620 3 20.50160 0.00000 -20.50160 0.00000 0.00000 0.00000 ; amides wlj 6/20/97
4623 4618 4619 4621 3
4623 4618 4619 4622 3
4625 4626 4627 4628 3 33.20422 0.00000 -33.20422 0.00000 0.00000 0.00000 ; methylguanidinium ion
4625 4626 4627 4633 3 20.50160 0.00000 -20.50160 0.00000 0.00000 0.00000 ; imides
4626 4627 4628 4629 3 25.47638 0.00000 -25.47638 0.00000 0.00000 0.00000 ; amides O-C(O)-N-C
4626 4627 4628 4631 3
4626 4627 4628 4632 3
4627 4628 4629 4630 3 16.73600 4.18400 -20.92000 0.00000 0.00000 0.00000 ; carbamates
4631 4628 4629 4630 3
4632 4628 4629 4630 3
4633 4627 4628 4629 3 20.50160 0.00000 -20.50160 0.00000 0.00000 0.00000 ; amides wlj 6/20/97
4633 4627 4628 4631 3
4633 4627 4628 4632 3
4635 4636 4637 4638 3 33.20422 0.00000 -33.20422 0.00000 0.00000 0.00000 ; methylguanidinium ion
4635 4636 4637 4642 3 20.50160 0.00000 -20.50160 0.00000 0.00000 0.00000 ; imides
4636 4637 4638 4639 3 25.47638 0.00000 -25.47638 0.00000 0.00000 0.00000 ; amides O-C(O)-N-C
4636 4637 4638 4640 3
4636 4637 4638 4641 3
4642 4637 4638 4639 3 20.50160 0.00000 -20.50160 0.00000 0.00000 0.00000 ; amides wlj 6/20/97
4642 4637 4638 4640 3
4642 4637 4638 4641 3
4644 4645 4646 4647 3 33.20422 0.00000 -33.20422 0.00000 0.00000 0.00000 ; methylguanidinium ion
4644 4645 4646 4651 3 20.50160 0.00000 -20.50160 0.00000 0.00000 0.00000 ; imides
4645 4646 4647 4648 3 25.47638 0.00000 -25.47638 0.00000 0.00000 0.00000 ; amides O-C(O)-N-C
4645 4646 4647 4649 3
4645 4646 4647 4650 3
4651 4646 4647 4648 3 20.50160 0.00000 -20.50160 0.00000 0.00000 0.00000 ; amides wlj 6/20/97
4651 4646 4647 4649 3
4651 4646 4647 4650 3
4653 4654 4655 4656 3 33.20422 0.00000 -33.20422 0.00000 0.00000 0.00000 ; methylguanidinium ion
4653 4654 4655 4660 3 20.50160 0.00000 -20.50160 0.00000 0.00000 0.00000 ; imides
4654 4655 4656 4657 3 25.47638 0.00000 -25.47638 0.00000 0.00000 0.00000 ; amides O-C(O)-N-C
4654 4655 4656 4658 3
4654 4655 4656 4659 3
4660 4655 4656 4657 3 20.50160 0.00000 -20.50160 0.00000 0.00000 0.00000 ; amides wlj 6/20/97
4660 4655 4656 4658 3
4660 4655 4656 4659 3
4662 4663 4664 4665 3 33.20422 0.00000 -33.20422 0.00000 0.00000 0.00000 ; methylguanidinium ion
4662 4663 4664 4669 3 20.50160 0.00000 -20.50160 0.00000 0.00000 0.00000 ; imides
4663 4664 4665 4666 3 25.47638 0.00000 -25.47638 0.00000 0.00000 0.00000 ; amides O-C(O)-N-C
4663 4664 4665 4667 3
4663 4664 4665 4668 3
4669 4664 4665 4666 3 20.50160 0.00000 -20.50160 0.00000 0.00000 0.00000 ; amides wlj 6/20/97
4669 4664 4665 4667 3
4669 4664 4665 4668 3
4671 4672 4673 4674 3 33.20422 0.00000 -33.20422 0.00000 0.00000 0.00000 ; methylguanidinium ion
4671 4672 4673 4678 3 20.50160 0.00000 -20.50160 0.00000 0.00000 0.00000 ; imides
4672 4673 4674 4675 3 25.47638 0.00000 -25.47638 0.00000 0.00000 0.00000 ; amides O-C(O)-N-C
4672 4673 4674 4676 3
4672 4673 4674 4677 3
4678 4673 4674 4675 3 20.50160 0.00000 -20.50160 0.00000 0.00000 0.00000 ; amides wlj 6/20/97
4678 4673 4674 4676 3
4678 4673 4674 4677 3
4680 4681 4682 4683 3 33.20422 0.00000 -33.20422 0.00000 0.00000 0.00000 ; methylguanidinium ion
4680 4681 4682 4687 3 20.50160 0.00000 -20.50160 0.00000 0.00000 0.00000 ; imides
4681 4682 4683 4684 3 25.47638 0.00000 -25.47638 0.00000 0.00000 0.00000 ; amides O-C(O)-N-C
4681 4682 4683 4685 3
4681 4682 4683 4686 3
4687 4682 4683 4684 3 20.50160 0.00000 -20.50160 0.00000 0.00000 0.00000 ; amides wlj 6/20/97
4687 4682 4683 4685 3
4687 4682 4683 4686 3
4689 4690 4691 4692 3 33.20422 0.00000 -33.20422 0.00000 0.00000 0.00000 ; methylguanidinium ion
4689 4690 4691 4695 3 20.50160 0.00000 -20.50160 0.00000 0.00000 0.00000 ; imides
4690 4691 4692 4693 3
4690 4691 4692 4694 3
4695 4691 4692 4693 3
4695 4691 4692 4694 3
4697 4698 4699 4700 3 33.20422 0.00000 -33.20422 0.00000 0.00000 0.00000 ; methylguanidinium ion
4697 4698 4699 4704 3 20.50160 0.00000 -20.50160 0.00000 0.00000 0.00000 ; imides
4698 4699 4700 4701 3 25.47638 0.00000 -25.47638 0.00000 0.00000 0.00000 ; amides O-C(O)-N-C
4698 4699 4700 4702 3
4698 4699 4700 4703 3
4704 4699 4700 4701 3 20.50160 0.00000 -20.50160 0.00000 0.00000 0.00000 ; amides wlj 6/20/97
4704 4699 4700 4702 3
4704 4699 4700 4703 3
4706 4707 4708 4709 3 33.20422 0.00000 -33.20422 0.00000 0.00000 0.00000 ; methylguanidinium ion
4706 4707 4708 4712 3 20.50160 0.00000 -20.50160 0.00000 0.00000 0.00000 ; imides
4707 4708 4709 4710 3
4707 4708 4709 4711 3
4712 4708 4709 4710 3
4712 4708 4709 4711 3
4714 4715 4716 4717 3 33.20422 0.00000 -33.20422 0.00000 0.00000 0.00000 ; methylguanidinium ion
4714 4715 4716 4721 3 20.50160 0.00000 -20.50160 0.00000 0.00000 0.00000 ; imides
4715 4716 4717 4718 3 25.47638 0.00000 -25.47638 0.00000 0.00000 0.00000 ; amides O-C(O)-N-C
4715 4716 4717 4719 3
4715 4716 4717 4720 3
4721 4716 4717 4718 3 20.50160 0.00000 -20.50160 0.00000 0.00000 0.00000 ; amides wlj 6/20/97
4721 4716 4717 4719 3
4721 4716 4717 4720 3
4723 4724 4725 4726 3 33.20422 0.00000 -33.20422 0.00000 0.00000 0.00000 ; methylguanidinium ion
4723 4724 4725 4730 3 20.50160 0.00000 -20.50160 0.00000 0.00000 0.00000 ; imides
4724 4725 4726 4727 3 25.47638 0.00000 -25.47638 0.00000 0.00000 0.00000 ; amides O-C(O)-N-C
4724 4725 4726 4728 3
4724 4725 4726 4729 3
4730 4725 4726 4727 3 20.50160 0.00000 -20.50160 0.00000 0.00000 0.00000 ; amides wlj 6/20/97
4730 4725 4726 4728 3
4730 4725 4726 4729 3
4732 4733 4734 4735 3 33.20422 0.00000 -33.20422 0.00000 0.00000 0.00000 ; methylguanidinium ion
4732 4733 4734 4739 3 20.50160 0.00000 -20.50160 0.00000 0.00000 0.00000 ; imides
4733 4734 4735 4736 3 25.47638 0.00000 -25.47638 0.00000 0.00000 0.00000 ; amides O-C(O)-N-C
4733 4734 4735 4737 3
4733 4734 4735 4738 3
4739 4734 4735 4736 3 20.50160 0.00000 -20.50160 0.00000 0.00000 0.00000 ; amides wlj 6/20/97
4739 4734 4735 4737 3
4739 4734 4735 4738 3
4741 4742 4743 4744 3 33.20422 0.00000 -33.20422 0.00000 0.00000 0.00000 ; methylguanidinium ion
4741 4742 4743 4749 3 20.50160 0.00000 -20.50160 0.00000 0.00000 0.00000 ; imides
4742 4743 4744 4745 3 25.47638 0.00000 -25.47638 0.00000 0.00000 0.00000 ; amides O-C(O)-N-C
4742 4743 4744 4747 3
4742 4743 4744 4748 3
4743 4744 4745 4746 3 16.73600 4.18400 -20.92000 0.00000 0.00000 0.00000 ; carbamates
4747 4744 4745 4746 3
4748 4744 4745 4746 3
4749 4743 4744 4745 3 20.50160 0.00000 -20.50160 0.00000 0.00000 0.00000 ; amides wlj 6/20/97
4749 4743 4744 4747 3
4749 4743 4744 4748 3
4751 4752 4753 4754 3 33.20422 0.00000 -33.20422 0.00000 0.00000 0.00000 ; methylguanidinium ion
4751 4752 4753 4758 3 20.50160 0.00000 -20.50160 0.00000 0.00000 0.00000 ; imides
4752 4753 4754 4755 3 25.47638 0.00000 -25.47638 0.00000 0.00000 0.00000 ; amides O-C(O)-N-C
4752 4753 4754 4756 3
4752 4753 4754 4757 3
4758 4753 4754 4755 3 20.50160 0.00000 -20.50160 0.00000 0.00000 0.00000 ; amides wlj 6/20/97
4758 4753 4754 4756 3
4758 4753 4754 4757 3
4760 4761 4762 4763 3 33.20422 0.00000 -33.20422 0.00000 0.00000 0.00000 ; methylguanidinium ion
4760 4761 4762 4767 3 20.50160 0.00000 -20.50160 0.00000 0.00000 0.00000 ; imides
4761 4762 4763 4764 3 25.47638 0.00000 -25.47638 0.00000 0.00000 0.00000 ; amides O-C(O)-N-C
4761 4762 4763 4765 3
4761 4762 4763 4766 3
4767 4762 4763 4764 3 20.50160 0.00000 -20.50160 0.00000 0.00000 0.00000 ; amides wlj 6/20/97
4767 4762 4763 4765 3
4767 4762 4763 4766 3
4769 4770 4771 4772 3 33.20422 0.00000 -33.20422 0.00000 0.00000 0.00000 ; methylguanidinium ion
4769 4770 4771 4776 3 20.50160 0.00000 -20.50160 0.00000 0.00000 0.00000 ; imides
4770 4771 4772 4773 3 25.47638 0.00000 -25.47638 0.00000 0.00000 0.00000 ; amides O-C(O)-N-C
4770 4771 4772 4774 3
4770 4771 4772 4775 3
4776 4771 4772 4773 3 20.50160 0.00000 -20.50160 0.00000 0.00000 0.00000 ; amides wlj 6/20/97
4776 4771 4772 4774 3
4776 4771 4772 4775 3
4778 4779 4780 4781 3 33.20422 0.00000 -33.20422 0.00000 0.00000 0.00000 ; methylguanidinium ion
4778 4779 4780 4785 3 20.50160 0.00000 -20.50160 0.00000 0.00000 0.00000 ; imides
4779 4780 4781 4782 3 25.47638 0.00000 -25.47638 0.00000 0.00000 0.00000 ; amides O-C(O)-N-C
4779 4780 4781 4783 3
4779 4780 4781 4784 3
4785 4780 4781 4782 3 20.50160 0.00000 -20.50160 0.00000 0.00000 0.00000 ; amides wlj 6/20/97
4785 4780 4781 4783 3
4785 4780 4781 4784 3
4787 4788 4789 4790 3 33.20422 0.00000 -33.20422 0.00000 0.00000 0.00000 ; methylguanidinium ion
4787 4788 4789 4794 3 20.50160 0.00000 -20.50160 0.00000 0.00000 0.00000 ; imides
4788 4789 4790 4791 3 25.47638 0.00000 -25.47638 0.00000 0.00000 0.00000 ; amides O-C(O)-N-C
4788 4789 4790 4792 3
4788 4789 4790 4793 3
4794 4789 4790 4791 3 20.50160 0.00000 -20.50160 0.00000 0.00000 0.00000 ; amides wlj 6/20/97
4794 4789 4790 4792 3
4794 4789 4790 4793 3
4796 4797 4798 4799 3 33.20422 0.00000 -33.20422 0.00000 0.00000 0.00000 ; methylguanidinium ion
4796 4797 4798 4802 3 20.50160 0.00000 -20.50160 0.00000 0.00000 0.00000 ; imides
4797 4798 4799 4800 3
4797 4798 4799 4801 3
4802 4798 4799 4800 3
4802 4798 4799 4801 3
4804 4805 4806 4807 3 33.20422 0.00000 -33.20422 0.00000 0.00000 0.00000 ; methylguanidinium ion
4804 4805 4806 4811 3 20.50160 0.00000 -20.50160 0.00000 0.00000 0.00000 ; imides
4805 4806 4807 4808 3 25.47638 0.00000 -25.47638 0.00000 0.00000 0.00000 ; amides O-C(O)-N-C
4805 4806 4807 4809 3
4805 4806 4807 4810 3
4811 4806 4807 4808 3 20.50160 0.00000 -20.50160 0.00000 0.00000 0.00000 ; amides wlj 6/20/97
4811 4806 4807 4809 3
4811 4806 4807 4810 3
4813 4814 4815 4816 3 33.20422 0.00000 -33.20422 0.00000 0.00000 0.00000 ; methylguanidinium ion
4813 4814 4815 4820 3 20.50160 0.00000 -20.50160 0.00000 0.00000 0.00000 ; imides
4814 4815 4816 4817 3 25.47638 0.00000 -25.47638 0.00000 0.00000 0.00000 ; amides O-C(O)-N-C
4814 4815 4816 4818 3
4814 4815 4816 4819 3
4820 4815 4816 4817 3 20.50160 0.00000 -20.50160 0.00000 0.00000 0.00000 ; amides wlj 6/20/97
4820 4815 4816 4818 3
4820 4815 4816 4819 3
4822 4823 4824 4825 3 33.20422 0.00000 -33.20422 0.00000 0.00000 0.00000 ; methylguanidinium ion
4822 4823 4824 4829 3 20.50160 0.00000 -20.50160 0.00000 0.00000 0.00000 ; imides
4823 4824 4825 4826 3 25.47638 0.00000 -25.47638 0.00000 0.00000 0.00000 ; amides O-C(O)-N-C
4823 4824 4825 4827 3
4823 4824 4825 4828 3
4829 4824 4825 4826 3 20.50160 0.00000 -20.50160 0.00000 0.00000 0.00000 ; amides wlj 6/20/97
4829 4824 4825 4827 3
4829 4824 4825 4828 3
4831 4832 4833 4834 3 33.20422 0.00000 -33.20422 0.00000 0.00000 0.00000 ; methylguanidinium ion
4831 4832 4833 4837 3 20.50160 0.00000 -20.50160 0.00000 0.00000 0.00000 ; imides
4832 4833 4834 4835 3
4832 4833 4834 4836 3
4837 4833 4834 4835 3
4837 4833 4834 4836 3
4839 4840 4841 4842 3 33.20422 0.00000 -33.20422 0.00000 0.00000 0.00000 ; methylguanidinium ion
4839 4840 4841 4845 3 20.50160 0.00000 -20.50160 0.00000 0.00000 0.00000 ; imides
4840 4841 4842 4843 3
4840 4841 4842 4844 3
4845 4841 4842 4843 3
4845 4841 4842 4844 3
4847 4848 4849 4850 3 33.20422 0.00000 -33.20422 0.00000 0.00000 0.00000 ; methylguanidinium ion
4847 4848 4849 4854 3 20.50160 0.00000 -20.50160 0.00000 0.00000 0.00000 ; imides
4848 4849 4850 4851 3 25.47638 0.00000 -25.47638 0.00000 0.00000 0.00000 ; amides O-C(O)-N-C
4848 4849 4850 4852 3
4848 4849 4850 4853 3
4854 4849 4850 4851 3 20.50160 0.00000 -20.50160 0.00000 0.00000 0.00000 ; amides wlj 6/20/97
4854 4849 4850 4852 3
4854 4849 4850 4853 3
4856 4857 4858 4859 3 33.20422 0.00000 -33.20422 0.00000 0.00000 0.00000 ; methylguanidinium ion
4856 4857 4858 4863 3 20.50160 0.00000 -20.50160 0.00000 0.00000 0.00000 ; imides
4857 4858 4859 4860 3 25.47638 0.00000 -25.47638 0.00000 0.00000 0.00000 ; amides O-C(O)-N-C
4857 4858 4859 4861 3
4857 4858 4859 4862 3
4863 4858 4859 4860 3 20.50160 0.00000 -20.50160 0.00000 0.00000 0.00000 ; amides wlj 6/20/97
4863 4858 4859 4861 3
4863 4858 4859 4862 3
4865 4866 4867 4868 3 33.20422 0.00000 -33.20422 0.00000 0.00000 0.00000 ; methylguanidinium ion
4865 4866 4867 4871 3 20.50160 0.00000 -20.50160 0.00000 0.00000 0.00000 ; imides
4866 4867 4868 4869 3
4866 4867 4868 4870 3
4871 4867 4868 4869 3
4871 4867 4868 4870 3
4873 4874 4875 4876 3 33.20422 0.00000 -33.20422 0.00000 0.00000 0.00000 ; methylguanidinium ion
4873 4874 4875 4880 3 20.50160 0.00000 -20.50160 0.00000 0.00000 0.00000 ; imides
4874 4875 4876 4877 3 25.47638 0.00000 -25.47638 0.00000 0.00000 0.00000 ; amides O-C(O)-N-C
4874 4875 4876 4878 3
4874 4875 4876 4879 3
4880 4875 4876 4877 3 20.50160 0.00000 -20.50160 0.00000 0.00000 0.00000 ; amides wlj 6/20/97
4880 4875 4876 4878 3
4880 4875 4876 4879 3
4882 4883 4884 4885 3 33.20422 0.00000 -33.20422 0.00000 0.00000 0.00000 ; methylguanidinium ion
4882 4883 4884 4889 3 20.50160 0.00000 -20.50160 0.00000 0.00000 0.00000 ; imides
4883 4884 4885 4886 3 25.47638 0.00000 -25.47638 0.00000 0.00000 0.00000 ; amides O-C(O)-N-C
4883 4884 4885 4887 3
4883 4884 4885 4888 3
4889 4884 4885 4886 3 20.50160 0.00000 -20.50160 0.00000 0.00000 0.00000 ; amides wlj 6/20/97
4889 4884 4885 4887 3
4889 4884 4885 4888 3
4891 4892 4893 4894 3 33.20422 0.00000 -33.20422 0.00000 0.00000 0.00000 ; methylguanidinium ion
4891 4892 4893 4898 3 20.50160 0.00000 -20.50160 0.00000 0.00000 0.00000 ; imides
4892 4893 4894 4895 3 25.47638 0.00000 -25.47638 0.00000 0.00000 0.00000 ; amides O-C(O)-N-C
4892 4893 4894 4896 3
4892 4893 4894 4897 3
4898 4893 4894 4895 3 20.50160 0.00000 -20.50160 0.00000 0.00000 0.00000 ; amides wlj 6/20/97
4898 4893 4894 4896 3
4898 4893 4894 4897 3
4900 4901 4902 4903 3 33.20422 0.00000 -33.20422 0.00000 0.00000 0.00000 ; methylguanidinium ion
4900 4901 4902 4907 3 20.50160 0.00000 -20.50160 0.00000 0.00000 0.00000 ; imides
4901 4902 4903 4904 3 25.47638 0.00000 -25.47638 0.00000 0.00000 0.00000 ; amides O-C(O)-N-C
4901 4902 4903 4905 3
4901 4902 4903 4906 3
4907 4902 4903 4904 3 20.50160 0.00000 -20.50160 0.00000 0.00000 0.00000 ; amides wlj 6/20/97
4907 4902 4903 4905 3
4907 4902 4903 4906 3
4909 4910 4911 4912 3 33.20422 0.00000 -33.20422 0.00000 0.00000 0.00000 ; methylguanidinium ion
4909 4910 4911 4915 3 20.50160 0.00000 -20.50160 0.00000 0.00000 0.00000 ; imides
4910 4911 4912 4913 3
4910 4911 4912 4914 3
4915 4911 4912 4913 3
4915 4911 4912 4914 3
4917 4918 4919 4920 3 33.20422 0.00000 -33.20422 0.00000 0.00000 0.00000 ; methylguanidinium ion
4917 4918 4919 4923 3 20.50160 0.00000 -20.50160 0.00000 0.00000 0.00000 ; imides
4918 4919 4920 4921 3
4918 4919 4920 4922 3
4923 4919 4920 4921 3
4923 4919 4920 4922 3
4925 4926 4927 4928 3 33.20422 0.00000 -33.20422 0.00000 0.00000 0.00000 ; methylguanidinium ion
4925 4926 4927 4932 3 20.50160 0.00000 -20.50160 0.00000 0.00000 0.00000 ; imides
4926 4927 4928 4929 3 25.47638 0.00000 -25.47638 0.00000 0.00000 0.00000 ; amides O-C(O)-N-C
4926 4927 4928 4930 3
4926 4927 4928 4931 3
4932 4927 4928 4929 3 20.50160 0.00000 -20.50160 0.00000 0.00000 0.00000 ; amides wlj 6/20/97
4932 4927 4928 4930 3
4932 4927 4928 4931 3
4934 4935 4936 4937 3 33.20422 0.00000 -33.20422 0.00000 0.00000 0.00000 ; methylguanidinium ion
4934 4935 4936 4941 3 20.50160 0.00000 -20.50160 0.00000 0.00000 0.00000 ; imides
4935 4936 4937 4938 3 25.47638 0.00000 -25.47638 0.00000 0.00000 0.00000 ; amides O-C(O)-N-C
4935 4936 4937 4939 3
4935 4936 4937 4940 3
4941 4936 4937 4938 3 20.50160 0.00000 -20.50160 0.00000 0.00000 0.00000 ; amides wlj 6/20/97
4941 4936 4937 4939 3
4941 4936 4937 4940 3
4943 4944 4945 4946 3 33.20422 0.00000 -33.20422 0.00000 0.00000 0.00000 ; methylguanidinium ion
4943 4944 4945 4951 3 20.50160 0.00000 -20.50160 0.00000 0.00000 0.00000 ; imides
4944 4945 4946 4947 3 25.47638 0.00000 -25.47638 0.00000 0.00000 0.00000 ; amides O-C(O)-N-C
4944 4945 4946 4949 3
4944 4945 4946 4950 3
4945 4946 4947 4948 3 16.73600 4.18400 -20.92000 0.00000 0.00000 0.00000 ; carbamates
4949 4946 4947 4948 3
4950 4946 4947 4948 3
4951 4945 4946 4947 3 20.50160 0.00000 -20.50160 0.00000 0.00000 0.00000 ; amides wlj 6/20/97
4951 4945 4946 4949 3
4951 4945 4946 4950 3
4953 4954 4955 4956 3 33.20422 0.00000 -33.20422 0.00000 0.00000 0.00000 ; methylguanidinium ion
4953 4954 4955 4959 3 20.50160 0.00000 -20.50160 0.00000 0.00000 0.00000 ; imides
4954 4955 4956 4957 3
4954 4955 4956 4958 3
4959 4955 4956 4957 3
4959 4955 4956 4958 3
4961 4962 4963 4964 3 33.20422 0.00000 -33.20422 0.00000 0.00000 0.00000 ; methylguanidinium ion
4961 4962 4963 4967 3 20.50160 0.00000 -20.50160 0.00000 0.00000 0.00000 ; imides
4962 4963 4964 4965 3
4962 4963 4964 4966 3
4967 4963 4964 4965 3
4967 4963 4964 4966 3
4969 4970 4971 4972 3 33.20422 0.00000 -33.20422 0.00000 0.00000 0.00000 ; methylguanidinium ion
4969 4970 4971 4975 3 20.50160 0.00000 -20.50160 0.00000 0.00000 0.00000 ; imides
4970 4971 4972 4973 3
4970 4971 4972 4974 3
4975 4971 4972 4973 3
4975 4971 4972 4974 3
4977 4978 4979 4980 3 33.20422 0.00000 -33.20422 0.00000 0.00000 0.00000 ; methylguanidinium ion
4977 4978 4979 4984 3 20.50160 0.00000 -20.50160 0.00000 0.00000 0.00000 ; imides
4978 4979 4980 4981 3 25.47638 0.00000 -25.47638 0.00000 0.00000 0.00000 ; amides O-C(O)-N-C
4978 4979 4980 4982 3
4978 4979 4980 4983 3
4984 4979 4980 4981 3 20.50160 0.00000 -20.50160 0.00000 0.00000 0.00000 ; amides wlj 6/20/97
4984 4979 4980 4982 3
4984 4979 4980 4983 3
4986 4987 4988 4989 3 33.20422 0.00000 -33.20422 0.00000 0.00000 0.00000 ; methylguanidinium ion
4986 4987 4988 4993 3 20.50160 0.00000 -20.50160 0.00000 0.00000 0.00000 ; imides
4987 4988 4989 4990 3 25.47638 0.00000 -25.47638 0.00000 0.00000 0.00000 ; amides O-C(O)-N-C
4987 4988 4989 4991 3
4987 4988 4989 4992 3
4993 4988 4989 4990 3 20.50160 0.00000 -20.50160 0.00000 0.00000 0.00000 ; amides wlj 6/20/97
4993 4988 4989 4991 3
4993 4988 4989 4992 3
4995 4996 4997 4998 3 33.20422 0.00000 -33.20422 0.00000 0.00000 0.00000 ; methylguanidinium ion
4995 4996 4997 5002 3 20.50160 0.00000 -20.50160 0.00000 0.00000 0.00000 ; imides
4996 4997 4998 4999 3 25.47638 0.00000 -25.47638 0.00000 0.00000 0.00000 ; amides O-C(O)-N-C
4996 4997 4998 5000 3
4996 4997 4998 5001 3
5002 4997 4998 4999 3 20.50160 0.00000 -20.50160 0.00000 0.00000 0.00000 ; amides wlj 6/20/97
5002 4997 4998 5000 3
5002 4997 4998 5001 3
5004 5005 5006 5007 3 33.20422 0.00000 -33.20422 0.00000 0.00000 0.00000 ; methylguanidinium ion
5004 5005 5006 5012 3 20.50160 0.00000 -20.50160 0.00000 0.00000 0.00000 ; imides
5005 5006 5007 5008 3 25.47638 0.00000 -25.47638 0.00000 0.00000 0.00000 ; amides O-C(O)-N-C
5005 5006 5007 5010 3
5005 5006 5007 5011 3
5006 5007 5008 5009 3 16.73600 4.18400 -20.92000 0.00000 0.00000 0.00000 ; carbamates
5010 5007 5008 5009 3
5011 5007 5008 5009 3
5012 5006 5007 5008 3 20.50160 0.00000 -20.50160 0.00000 0.00000 0.00000 ; amides wlj 6/20/97
5012 5006 5007 5010 3
5012 5006 5007 5011 3
5014 5015 5016 5017 3 33.20422 0.00000 -33.20422 0.00000 0.00000 0.00000 ; methylguanidinium ion
5014 5015 5016 5021 3 20.50160 0.00000 -20.50160 0.00000 0.00000 0.00000 ; imides
5015 5016 5017 5018 3 25.47638 0.00000 -25.47638 0.00000 0.00000 0.00000 ; amides O-C(O)-N-C
5015 5016 5017 5019 3
5015 5016 5017 5020 3
5021 5016 5017 5018 3 20.50160 0.00000 -20.50160 0.00000 0.00000 0.00000 ; amides wlj 6/20/97
5021 5016 5017 5019 3
5021 5016 5017 5020 3
5023 5024 5025 5026 3 33.20422 0.00000 -33.20422 0.00000 0.00000 0.00000 ; methylguanidinium ion
5023 5024 5025 5029 3 20.50160 0.00000 -20.50160 0.00000 0.00000 0.00000 ; imides
5024 5025 5026 5027 3
5024 5025 5026 5028 3
5029 5025 5026 5027 3
5029 5025 5026 5028 3
5031 5032 5033 5034 3 33.20422 0.00000 -33.20422 0.00000 0.00000 0.00000 ; methylguanidinium ion
5031 5032 5033 5038 3 20.50160 0.00000 -20.50160 0.00000 0.00000 0.00000 ; imides
5032 5033 5034 5035 3 25.47638 0.00000 -25.47638 0.00000 0.00000 0.00000 ; amides O-C(O)-N-C
5032 5033 5034 5036 3
5032 5033 5034 5037 3
5038 5033 5034 5035 3 20.50160 0.00000 -20.50160 0.00000 0.00000 0.00000 ; amides wlj 6/20/97
5038 5033 5034 5036 3
5038 5033 5034 5037 3
5040 5041 5042 5043 3 33.20422 0.00000 -33.20422 0.00000 0.00000 0.00000 ; methylguanidinium ion
5040 5041 5042 5046 3 20.50160 0.00000 -20.50160 0.00000 0.00000 0.00000 ; imides
5041 5042 5043 5044 3
5041 5042 5043 5045 3
5046 5042 5043 5044 3
5046 5042 5043 5045 3
5048 5049 5050 5051 3 33.20422 0.00000 -33.20422 0.00000 0.00000 0.00000 ; methylguanidinium ion
5048 5049 5050 5056 3 20.50160 0.00000 -20.50160 0.00000 0.00000 0.00000 ; imides
5049 5050 5051 5052 3 25.47638 0.00000 -25.47638 0.00000 0.00000 0.00000 ; amides O-C(O)-N-C
5049 5050 5051 5054 3
5049 5050 5051 5055 3
5050 5051 5052 5053 3 16.73600 4.18400 -20.92000 0.00000 0.00000 0.00000 ; carbamates
5054 5051 5052 5053 3
5055 5051 5052 5053 3
5056 5050 5051 5052 3 20.50160 0.00000 -20.50160 0.00000 0.00000 0.00000 ; amides wlj 6/20/97
5056 5050 5051 5054 3
5056 5050 5051 5055 3
5058 5059 5060 5061 3 33.20422 0.00000 -33.20422 0.00000 0.00000 0.00000 ; methylguanidinium ion
5058 5059 5060 5064 3 20.50160 0.00000 -20.50160 0.00000 0.00000 0.00000 ; imides
5059 5060 5061 5062 3
5059 5060 5061 5063 3
5064 5060 5061 5062 3
5064 5060 5061 5063 3
5066 5067 5068 5069 3 33.20422 0.00000 -33.20422 0.00000 0.00000 0.00000 ; methylguanidinium ion
5066 5067 5068 5073 3 20.50160 0.00000 -20.50160 0.00000 0.00000 0.00000 ; imides
5067 5068 5069 5070 3 25.47638 0.00000 -25.47638 0.00000 0.00000 0.00000 ; amides O-C(O)-N-C
5067 5068 5069 5071 3
5067 5068 5069 5072 3
5073 5068 5069 5070 3 20.50160 0.00000 -20.50160 0.00000 0.00000 0.00000 ; amides wlj 6/20/97
5073 5068 5069 5071 3
5073 5068 5069 5072 3
5075 5076 5077 5078 3 33.20422 0.00000 -33.20422 0.00000 0.00000 0.00000 ; methylguanidinium ion
5075 5076 5077 5082 3 20.50160 0.00000 -20.50160 0.00000 0.00000 0.00000 ; imides
5076 5077 5078 5079 3 25.47638 0.00000 -25.47638 0.00000 0.00000 0.00000 ; amides O-C(O)-N-C
5076 5077 5078 5080 3
5076 5077 5078 5081 3
5082 5077 5078 5079 3 20.50160 0.00000 -20.50160 0.00000 0.00000 0.00000 ; amides wlj 6/20/97
5082 5077 5078 5080 3
5082 5077 5078 5081 3
5084 5085 5086 5087 3 33.20422 0.00000 -33.20422 0.00000 0.00000 0.00000 ; methylguanidinium ion
5084 5085 5086 5091 3 20.50160 0.00000 -20.50160 0.00000 0.00000 0.00000 ; imides
5085 5086 5087 5088 3 25.47638 0.00000 -25.47638 0.00000 0.00000 0.00000 ; amides O-C(O)-N-C
5085 5086 5087 5089 3
5085 5086 5087 5090 3
5091 5086 5087 5088 3 20.50160 0.00000 -20.50160 0.00000 0.00000 0.00000 ; amides wlj 6/20/97
5091 5086 5087 5089 3
5091 5086 5087 5090 3
5093 5094 5095 5096 3 33.20422 0.00000 -33.20422 0.00000 0.00000 0.00000 ; methylguanidinium ion
5093 5094 5095 5101 3 20.50160 0.00000 -20.50160 0.00000 0.00000 0.00000 ; imides
5094 5095 5096 5097 3 25.47638 0.00000 -25.47638 0.00000 0.00000 0.00000 ; amides O-C(O)-N-C
5094 5095 5096 5099 3
5094 5095 5096 5100 3
5095 5096 5097 5098 3 16.73600 4.18400 -20.92000 0.00000 0.00000 0.00000 ; carbamates
5099 5096 5097 5098 3
5100 5096 5097 5098 3
5101 5095 5096 5097 3 20.50160 0.00000 -20.50160 0.00000 0.00000 0.00000 ; amides wlj 6/20/97
5101 5095 5096 5099 3
5101 5095 5096 5100 3
5103 5104 5105 5106 3 33.20422 0.00000 -33.20422 0.00000 0.00000 0.00000 ; methylguanidinium ion
5103 5104 5105 5110 3 20.50160 0.00000 -20.50160 0.00000 0.00000 0.00000 ; imides
5104 5105 5106 5107 3 25.47638 0.00000 -25.47638 0.00000 0.00000 0.00000 ; amides O-C(O)-N-C
5104 5105 5106 5108 3
5104 5105 5106 5109 3
5110 5105 5106 5107 3 20.50160 0.00000 -20.50160 0.00000 0.00000 0.00000 ; amides wlj 6/20/97
5110 5105 5106 5108 3
5110 5105 5106 5109 3
5112 5113 5114 5115 3 33.20422 0.00000 -33.20422 0.00000 0.00000 0.00000 ; methylguanidinium ion
5112 5113 5114 5120 3 20.50160 0.00000 -20.50160 0.00000 0.00000 0.00000 ; imides
5113 5114 5115 5116 3 25.47638 0.00000 -25.47638 0.00000 0.00000 0.00000 ; amides O-C(O)-N-C
5113 5114 5115 5118 3
5113 5114 5115 5119 3
5114 5115 5116 5117 3 16.73600 4.18400 -20.92000 0.00000 0.00000 0.00000 ; carbamates
5118 5115 5116 5117 3
5119 5115 5116 5117 3
5120 5114 5115 5116 3 20.50160 0.00000 -20.50160 0.00000 0.00000 0.00000 ; amides wlj 6/20/97
5120 5114 5115 5118 3
5120 5114 5115 5119 3
5122 5123 5124 5125 3 33.20422 0.00000 -33.20422 0.00000 0.00000 0.00000 ; methylguanidinium ion
5122 5123 5124 5130 3 20.50160 0.00000 -20.50160 0.00000 0.00000 0.00000 ; imides
5123 5124 5125 5126 3 25.47638 0.00000 -25.47638 0.00000 0.00000 0.00000 ; amides O-C(O)-N-C
5123 5124 5125 5128 3
5123 5124 5125 5129 3
5124 5125 5126 5127 3 16.73600 4.18400 -20.92000 0.00000 0.00000 0.00000 ; carbamates
5128 5125 5126 5127 3
5129 5125 5126 5127 3
5130 5124 5125 5126 3 20.50160 0.00000 -20.50160 0.00000 0.00000 0.00000 ; amides wlj 6/20/97
5130 5124 5125 5128 3
5130 5124 5125 5129 3
5132 5133 5134 5135 3 33.20422 0.00000 -33.20422 0.00000 0.00000 0.00000 ; methylguanidinium ion
5132 5133 5134 5139 3 20.50160 0.00000 -20.50160 0.00000 0.00000 0.00000 ; imides
5133 5134 5135 5136 3 25.47638 0.00000 -25.47638 0.00000 0.00000 0.00000 ; amides O-C(O)-N-C
5133 5134 5135 5137 3
5133 5134 5135 5138 3
5139 5134 5135 5136 3 20.50160 0.00000 -20.50160 0.00000 0.00000 0.00000 ; amides wlj 6/20/97
5139 5134 5135 5137 3
5139 5134 5135 5138 3
5141 5142 5143 5144 3 33.20422 0.00000 -33.20422 0.00000 0.00000 0.00000 ; methylguanidinium ion
5141 5142 5143 5148 3 20.50160 0.00000 -20.50160 0.00000 0.00000 0.00000 ; imides
5142 5143 5144 5145 3 25.47638 0.00000 -25.47638 0.00000 0.00000 0.00000 ; amides O-C(O)-N-C
5142 5143 5144 5146 3
5142 5143 5144 5147 3
5148 5143 5144 5145 3 20.50160 0.00000 -20.50160 0.00000 0.00000 0.00000 ; amides wlj 6/20/97
5148 5143 5144 5146 3
5148 5143 5144 5147 3
5150 5151 5152 5153 3 33.20422 0.00000 -33.20422 0.00000 0.00000 0.00000 ; methylguanidinium ion
5150 5151 5152 5156 3 20.50160 0.00000 -20.50160 0.00000 0.00000 0.00000 ; imides
5151 5152 5153 5154 3
5151 5152 5153 5155 3
5156 5152 5153 5154 3
5156 5152 5153 5155 3
5158 5159 5160 5161 3 33.20422 0.00000 -33.20422 0.00000 0.00000 0.00000 ; methylguanidinium ion
5158 5159 5160 5165 3 20.50160 0.00000 -20.50160 0.00000 0.00000 0.00000 ; imides
5159 5160 5161 5162 3 25.47638 0.00000 -25.47638 0.00000 0.00000 0.00000 ; amides O-C(O)-N-C
5159 5160 5161 5163 3
5159 5160 5161 5164 3
5165 5160 5161 5162 3 20.50160 0.00000 -20.50160 0.00000 0.00000 0.00000 ; amides wlj 6/20/97
5165 5160 5161 5163 3
5165 5160 5161 5164 3
5167 5168 5169 5170 3 33.20422 0.00000 -33.20422 0.00000 0.00000 0.00000 ; methylguanidinium ion
5167 5168 5169 5174 3 20.50160 0.00000 -20.50160 0.00000 0.00000 0.00000 ; imides
5168 5169 5170 5171 3 25.47638 0.00000 -25.47638 0.00000 0.00000 0.00000 ; amides O-C(O)-N-C
5168 5169 5170 5172 3
5168 5169 5170 5173 3
5174 5169 5170 5171 3 20.50160 0.00000 -20.50160 0.00000 0.00000 0.00000 ; amides wlj 6/20/97
5174 5169 5170 5172 3
5174 5169 5170 5173 3
5176 5177 5178 5179 3 33.20422 0.00000 -33.20422 0.00000 0.00000 0.00000 ; methylguanidinium ion
5176 5177 5178 5182 3 20.50160 0.00000 -20.50160 0.00000 0.00000 0.00000 ; imides
5177 5178 5179 5180 3
5177 5178 5179 5181 3
5182 5178 5179 5180 3
5182 5178 5179 5181 3
5184 5185 5186 5187 3 33.20422 0.00000 -33.20422 0.00000 0.00000 0.00000 ; methylguanidinium ion
5184 5185 5186 5191 3 20.50160 0.00000 -20.50160 0.00000 0.00000 0.00000 ; imides
5185 5186 5187 5188 3 25.47638 0.00000 -25.47638 0.00000 0.00000 0.00000 ; amides O-C(O)-N-C
5185 5186 5187 5189 3
5185 5186 5187 5190 3
5191 5186 5187 5188 3 20.50160 0.00000 -20.50160 0.00000 0.00000 0.00000 ; amides wlj 6/20/97
5191 5186 5187 5189 3
5191 5186 5187 5190 3
5193 5194 5195 5196 3 33.20422 0.00000 -33.20422 0.00000 0.00000 0.00000 ; methylguanidinium ion
5193 5194 5195 5200 3 20.50160 0.00000 -20.50160 0.00000 0.00000 0.00000 ; imides
5194 5195 5196 5197 3 25.47638 0.00000 -25.47638 0.00000 0.00000 0.00000 ; amides O-C(O)-N-C
5194 5195 5196 5198 3
5194 5195 5196 5199 3
5200 5195 5196 5197 3 20.50160 0.00000 -20.50160 0.00000 0.00000 0.00000 ; amides wlj 6/20/97
5200 5195 5196 5198 3
5200 5195 5196 5199 3
5202 5203 5204 5205 3 33.20422 0.00000 -33.20422 0.00000 0.00000 0.00000 ; methylguanidinium ion
5202 5203 5204 5209 3 20.50160 0.00000 -20.50160 0.00000 0.00000 0.00000 ; imides
5203 5204 5205 5206 3 25.47638 0.00000 -25.47638 0.00000 0.00000 0.00000 ; amides O-C(O)-N-C
5203 5204 5205 5207 3
5203 5204 5205 5208 3
5209 5204 5205 5206 3 20.50160 0.00000 -20.50160 0.00000 0.00000 0.00000 ; amides wlj 6/20/97
5209 5204 5205 5207 3
5209 5204 5205 5208 3
5211 5212 5213 5214 3 33.20422 0.00000 -33.20422 0.00000 0.00000 0.00000 ; methylguanidinium ion
5211 5212 5213 5219 3 20.50160 0.00000 -20.50160 0.00000 0.00000 0.00000 ; imides
5212 5213 5214 5215 3 25.47638 0.00000 -25.47638 0.00000 0.00000 0.00000 ; amides O-C(O)-N-C
5212 5213 5214 5217 3
5212 5213 5214 5218 3
5213 5214 5215 5216 3 16.73600 4.18400 -20.92000 0.00000 0.00000 0.00000 ; carbamates
5217 5214 5215 5216 3
5218 5214 5215 5216 3
5219 5213 5214 5215 3 20.50160 0.00000 -20.50160 0.00000 0.00000 0.00000 ; amides wlj 6/20/97
5219 5213 5214 5217 3
5219 5213 5214 5218 3
5221 5222 5223 5224 3 33.20422 0.00000 -33.20422 0.00000 0.00000 0.00000 ; methylguanidinium ion
5221 5222 5223 5228 3 20.50160 0.00000 -20.50160 0.00000 0.00000 0.00000 ; imides
5222 5223 5224 5225 3 25.47638 0.00000 -25.47638 0.00000 0.00000 0.00000 ; amides O-C(O)-N-C
5222 5223 5224 5226 3
5222 5223 5224 5227 3
5228 5223 5224 5225 3 20.50160 0.00000 -20.50160 0.00000 0.00000 0.00000 ; amides wlj 6/20/97
5228 5223 5224 5226 3
5228 5223 5224 5227 3
5230 5231 5232 5233 3 33.20422 0.00000 -33.20422 0.00000 0.00000 0.00000 ; methylguanidinium ion
5230 5231 5232 5236 3 20.50160 0.00000 -20.50160 0.00000 0.00000 0.00000 ; imides
5231 5232 5233 5234 3
5231 5232 5233 5235 3
5236 5232 5233 5234 3
5236 5232 5233 5235 3
5238 5239 5240 5241 3 33.20422 0.00000 -33.20422 0.00000 0.00000 0.00000 ; methylguanidinium ion
5238 5239 5240 5245 3 20.50160 0.00000 -20.50160 0.00000 0.00000 0.00000 ; imides
5239 5240 5241 5242 3 25.47638 0.00000 -25.47638 0.00000 0.00000 0.00000 ; amides O-C(O)-N-C
5239 5240 5241 5243 3
5239 5240 5241 5244 3
5245 5240 5241 5242 3 20.50160 0.00000 -20.50160 0.00000 0.00000 0.00000 ; amides wlj 6/20/97
5245 5240 5241 5243 3
5245 5240 5241 5244 3
5247 5248 5249 5250 3 33.20422 0.00000 -33.20422 0.00000 0.00000 0.00000 ; methylguanidinium ion
5247 5248 5249 5253 3 20.50160 0.00000 -20.50160 0.00000 0.00000 0.00000 ; imides
5248 5249 5250 5251 3
5248 5249 5250 5252 3
5253 5249 5250 5251 3
5253 5249 5250 5252 3
5255 5256 5257 5258 3 33.20422 0.00000 -33.20422 0.00000 0.00000 0.00000 ; methylguanidinium ion
5255 5256 5257 5263 3 20.50160 0.00000 -20.50160 0.00000 0.00000 0.00000 ; imides
5256 5257 5258 5259 3 25.47638 0.00000 -25.47638 0.00000 0.00000 0.00000 ; amides O-C(O)-N-C
5256 5257 5258 5261 3
5256 5257 5258 5262 3
5257 5258 5259 5260 3 16.73600 4.18400 -20.92000 0.00000 0.00000 0.00000 ; carbamates
5261 5258 5259 5260 3
5262 5258 5259 5260 3
5263 5257 5258 5259 3 20.50160 0.00000 -20.50160 0.00000 0.00000 0.00000 ; amides wlj 6/20/97
5263 5257 5258 5261 3
5263 5257 5258 5262 3
5265 5266 5267 5268 3 33.20422 0.00000 -33.20422 0.00000 0.00000 0.00000 ; methylguanidinium ion
5265 5266 5267 5272 3 20.50160 0.00000 -20.50160 0.00000 0.00000 0.00000 ; imides
5266 5267 5268 5269 3 25.47638 0.00000 -25.47638 0.00000 0.00000 0.00000 ; amides O-C(O)-N-C
5266 5267 5268 5270 3
5266 5267 5268 5271 3
5272 5267 5268 5269 3 20.50160 0.00000 -20.50160 0.00000 0.00000 0.00000 ; amides wlj 6/20/97
5272 5267 5268 5270 3
5272 5267 5268 5271 3
5274 5275 5276 5277 3 33.20422 0.00000 -33.20422 0.00000 0.00000 0.00000 ; methylguanidinium ion
5274 5275 5276 5281 3 20.50160 0.00000 -20.50160 0.00000 0.00000 0.00000 ; imides
5275 5276 5277 5278 3 25.47638 0.00000 -25.47638 0.00000 0.00000 0.00000 ; amides O-C(O)-N-C
5275 5276 5277 5279 3
5275 5276 5277 5280 3
5281 5276 5277 5278 3 20.50160 0.00000 -20.50160 0.00000 0.00000 0.00000 ; amides wlj 6/20/97
5281 5276 5277 5279 3
5281 5276 5277 5280 3
5283 5284 5285 5286 3 33.20422 0.00000 -33.20422 0.00000 0.00000 0.00000 ; methylguanidinium ion
5283 5284 5285 5289 3 20.50160 0.00000 -20.50160 0.00000 0.00000 0.00000 ; imides
5284 5285 5286 5287 3
5284 5285 5286 5288 3
5289 5285 5286 5287 3
5289 5285 5286 5288 3
5291 5292 5293 5294 3 33.20422 0.00000 -33.20422 0.00000 0.00000 0.00000 ; methylguanidinium ion
5291 5292 5293 5298 3 20.50160 0.00000 -20.50160 0.00000 0.00000 0.00000 ; imides
5292 5293 5294 5295 3 25.47638 0.00000 -25.47638 0.00000 0.00000 0.00000 ; amides O-C(O)-N-C
5292 5293 5294 5296 3
5292 5293 5294 5297 3
5298 5293 5294 5295 3 20.50160 0.00000 -20.50160 0.00000 0.00000 0.00000 ; amides wlj 6/20/97
5298 5293 5294 5296 3
5298 5293 5294 5297 3
5300 5301 5302 5303 3 33.20422 0.00000 -33.20422 0.00000 0.00000 0.00000 ; methylguanidinium ion
5300 5301 5302 5306 3 20.50160 0.00000 -20.50160 0.00000 0.00000 0.00000 ; imides
5301 5302 5303 5304 3
5301 5302 5303 5305 3
5306 5302 5303 5304 3
5306 5302 5303 5305 3
5308 5309 5310 5311 3 33.20422 0.00000 -33.20422 0.00000 0.00000 0.00000 ; methylguanidinium ion
5308 5309 5310 5314 3 20.50160 0.00000 -20.50160 0.00000 0.00000 0.00000 ; imides
5309 5310 5311 5312 3
5309 5310 5311 5313 3
5314 5310 5311 5312 3
5314 5310 5311 5313 3
5316 5317 5318 5319 3 33.20422 0.00000 -33.20422 0.00000 0.00000 0.00000 ; methylguanidinium ion
5316 5317 5318 5323 3 20.50160 0.00000 -20.50160 0.00000 0.00000 0.00000 ; imides
5317 5318 5319 5320 3 25.47638 0.00000 -25.47638 0.00000 0.00000 0.00000 ; amides O-C(O)-N-C
5317 5318 5319 5321 3
5317 5318 5319 5322 3
5323 5318 5319 5320 3 20.50160 0.00000 -20.50160 0.00000 0.00000 0.00000 ; amides wlj 6/20/97
5323 5318 5319 5321 3
5323 5318 5319 5322 3
5325 5326 5327 5328 3 33.20422 0.00000 -33.20422 0.00000 0.00000 0.00000 ; methylguanidinium ion
5325 5326 5327 5333 3 20.50160 0.00000 -20.50160 0.00000 0.00000 0.00000 ; imides
5326 5327 5328 5329 3 25.47638 0.00000 -25.47638 0.00000 0.00000 0.00000 ; amides O-C(O)-N-C
5326 5327 5328 5331 3
5326 5327 5328 5332 3
5327 5328 5329 5330 3 16.73600 4.18400 -20.92000 0.00000 0.00000 0.00000 ; carbamates
5331 5328 5329 5330 3
5332 5328 5329 5330 3
5333 5327 5328 5329 3 20.50160 0.00000 -20.50160 0.00000 0.00000 0.00000 ; amides wlj 6/20/97
5333 5327 5328 5331 3
5333 5327 5328 5332 3
5335 5336 5337 5338 3 33.20422 0.00000 -33.20422 0.00000 0.00000 0.00000 ; methylguanidinium ion
5335 5336 5337 5341 3 20.50160 0.00000 -20.50160 0.00000 0.00000 0.00000 ; imides
5336 5337 5338 5339 3
5336 5337 5338 5340 3
5341 5337 5338 5339 3
5341 5337 5338 5340 3
5343 5344 5345 5346 3 33.20422 0.00000 -33.20422 0.00000 0.00000 0.00000 ; methylguanidinium ion
5343 5344 5345 5349 3 20.50160 0.00000 -20.50160 0.00000 0.00000 0.00000 ; imides
5344 5345 5346 5347 3
5344 5345 5346 5348 3
5349 5345 5346 5347 3
5349 5345 5346 5348 3
5351 5352 5353 5354 3 33.20422 0.00000 -33.20422 0.00000 0.00000 0.00000 ; methylguanidinium ion
5351 5352 5353 5357 3 20.50160 0.00000 -20.50160 0.00000 0.00000 0.00000 ; imides
5352 5353 5354 5355 3
5352 5353 5354 5356 3
5357 5353 5354 5355 3
5357 5353 5354 5356 3
5359 5360 5361 5362 3 33.20422 0.00000 -33.20422 0.00000 0.00000 0.00000 ; methylguanidinium ion
5359 5360 5361 5366 3 20.50160 0.00000 -20.50160 0.00000 0.00000 0.00000 ; imides
5360 5361 5362 5363 3 25.47638 0.00000 -25.47638 0.00000 0.00000 0.00000 ; amides O-C(O)-N-C
5360 5361 5362 5364 3
5360 5361 5362 5365 3
5366 5361 5362 5363 3 20.50160 0.00000 -20.50160 0.00000 0.00000 0.00000 ; amides wlj 6/20/97
5366 5361 5362 5364 3
5366 5361 5362 5365 3
5368 5369 5370 5371 3 33.20422 0.00000 -33.20422 0.00000 0.00000 0.00000 ; methylguanidinium ion
5368 5369 5370 5374 3 20.50160 0.00000 -20.50160 0.00000 0.00000 0.00000 ; imides
5369 5370 5371 5372 3
5369 5370 5371 5373 3
5374 5370 5371 5372 3
5374 5370 5371 5373 3
5376 5377 5378 5379 3 33.20422 0.00000 -33.20422 0.00000 0.00000 0.00000 ; methylguanidinium ion
5376 5377 5378 5384 3 20.50160 0.00000 -20.50160 0.00000 0.00000 0.00000 ; imides
5377 5378 5379 5380 3 25.47638 0.00000 -25.47638 0.00000 0.00000 0.00000 ; amides O-C(O)-N-C
5377 5378 5379 5382 3
5377 5378 5379 5383 3
5378 5379 5380 5381 3 16.73600 4.18400 -20.92000 0.00000 0.00000 0.00000 ; carbamates
5382 5379 5380 5381 3
5383 5379 5380 5381 3
5384 5378 5379 5380 3 20.50160 0.00000 -20.50160 0.00000 0.00000 0.00000 ; amides wlj 6/20/97
5384 5378 5379 5382 3
5384 5378 5379 5383 3
5386 5387 5388 5389 3 33.20422 0.00000 -33.20422 0.00000 0.00000 0.00000 ; methylguanidinium ion
5386 5387 5388 5394 3 20.50160 0.00000 -20.50160 0.00000 0.00000 0.00000 ; imides
5387 5388 5389 5390 3 25.47638 0.00000 -25.47638 0.00000 0.00000 0.00000 ; amides O-C(O)-N-C
5387 5388 5389 5392 3
5387 5388 5389 5393 3
5388 5389 5390 5391 3 16.73600 4.18400 -20.92000 0.00000 0.00000 0.00000 ; carbamates
5392 5389 5390 5391 3
5393 5389 5390 5391 3
5394 5388 5389 5390 3 20.50160 0.00000 -20.50160 0.00000 0.00000 0.00000 ; amides wlj 6/20/97
5394 5388 5389 5392 3
5394 5388 5389 5393 3
5396 5397 5398 5399 3 33.20422 0.00000 -33.20422 0.00000 0.00000 0.00000 ; methylguanidinium ion
5396 5397 5398 5402 3 20.50160 0.00000 -20.50160 0.00000 0.00000 0.00000 ; imides
5397 5398 5399 5400 3
5397 5398 5399 5401 3
5402 5398 5399 5400 3
5402 5398 5399 5401 3
5404 5405 5406 5407 3 33.20422 0.00000 -33.20422 0.00000 0.00000 0.00000 ; methylguanidinium ion
5404 5405 5406 5410 3 20.50160 0.00000 -20.50160 0.00000 0.00000 0.00000 ; imides
5405 5406 5407 5408 3
5405 5406 5407 5409 3
5410 5406 5407 5408 3
5410 5406 5407 5409 3
5412 5413 5414 5415 3 33.20422 0.00000 -33.20422 0.00000 0.00000 0.00000 ; methylguanidinium ion
5412 5413 5414 5418 3 20.50160 0.00000 -20.50160 0.00000 0.00000 0.00000 ; imides
5413 5414 5415 5416 3
5413 5414 5415 5417 3
5418 5414 5415 5416 3
5418 5414 5415 5417 3
5420 5421 5422 5423 3 33.20422 0.00000 -33.20422 0.00000 0.00000 0.00000 ; methylguanidinium ion
5420 5421 5422 5426 3 20.50160 0.00000 -20.50160 0.00000 0.00000 0.00000 ; imides
5421 5422 5423 5424 3
5421 5422 5423 5425 3
5426 5422 5423 5424 3
5426 5422 5423 5425 3
5428 5429 5430 5431 3 33.20422 0.00000 -33.20422 0.00000 0.00000 0.00000 ; methylguanidinium ion
5428 5429 5430 5435 3 20.50160 0.00000 -20.50160 0.00000 0.00000 0.00000 ; imides
5429 5430 5431 5432 3 25.47638 0.00000 -25.47638 0.00000 0.00000 0.00000 ; amides O-C(O)-N-C
5429 5430 5431 5433 3
5429 5430 5431 5434 3
5435 5430 5431 5432 3 20.50160 0.00000 -20.50160 0.00000 0.00000 0.00000 ; amides wlj 6/20/97
5435 5430 5431 5433 3
5435 5430 5431 5434 3
5437 5438 5439 5440 3 33.20422 0.00000 -33.20422 0.00000 0.00000 0.00000 ; methylguanidinium ion
5437 5438 5439 5444 3 20.50160 0.00000 -20.50160 0.00000 0.00000 0.00000 ; imides
5438 5439 5440 5441 3 25.47638 0.00000 -25.47638 0.00000 0.00000 0.00000 ; amides O-C(O)-N-C
5438 5439 5440 5442 3
5438 5439 5440 5443 3
5444 5439 5440 5441 3 20.50160 0.00000 -20.50160 0.00000 0.00000 0.00000 ; amides wlj 6/20/97
5444 5439 5440 5442 3
5444 5439 5440 5443 3
5446 5447 5448 5449 3 33.20422 0.00000 -33.20422 0.00000 0.00000 0.00000 ; methylguanidinium ion
5446 5447 5448 5453 3 20.50160 0.00000 -20.50160 0.00000 0.00000 0.00000 ; imides
5447 5448 5449 5450 3 25.47638 0.00000 -25.47638 0.00000 0.00000 0.00000 ; amides O-C(O)-N-C
5447 5448 5449 5451 3
5447 5448 5449 5452 3
5453 5448 5449 5450 3 20.50160 0.00000 -20.50160 0.00000 0.00000 0.00000 ; amides wlj 6/20/97
5453 5448 5449 5451 3
5453 5448 5449 5452 3
5455 5456 5457 5458 3 33.20422 0.00000 -33.20422 0.00000 0.00000 0.00000 ; methylguanidinium ion
5455 5456 5457 5462 3 20.50160 0.00000 -20.50160 0.00000 0.00000 0.00000 ; imides
5456 5457 5458 5459 3 25.47638 0.00000 -25.47638 0.00000 0.00000 0.00000 ; amides O-C(O)-N-C
5456 5457 5458 5460 3
5456 5457 5458 5461 3
5462 5457 5458 5459 3 20.50160 0.00000 -20.50160 0.00000 0.00000 0.00000 ; amides wlj 6/20/97
5462 5457 5458 5460 3
5462 5457 5458 5461 3
5464 5465 5466 5467 3 33.20422 0.00000 -33.20422 0.00000 0.00000 0.00000 ; methylguanidinium ion
5464 5465 5466 5470 3 20.50160 0.00000 -20.50160 0.00000 0.00000 0.00000 ; imides
5465 5466 5467 5468 3
5465 5466 5467 5469 3
5470 5466 5467 5468 3
5470 5466 5467 5469 3
5472 5473 5474 5475 3 33.20422 0.00000 -33.20422 0.00000 0.00000 0.00000 ; methylguanidinium ion
5472 5473 5474 5479 3 20.50160 0.00000 -20.50160 0.00000 0.00000 0.00000 ; imides
5473 5474 5475 5476 3 25.47638 0.00000 -25.47638 0.00000 0.00000 0.00000 ; amides O-C(O)-N-C
5473 5474 5475 5477 3
5473 5474 5475 5478 3
5479 5474 5475 5476 3 20.50160 0.00000 -20.50160 0.00000 0.00000 0.00000 ; amides wlj 6/20/97
5479 5474 5475 5477 3
5479 5474 5475 5478 3
5481 5482 5483 5484 3 33.20422 0.00000 -33.20422 0.00000 0.00000 0.00000 ; methylguanidinium ion
5481 5482 5483 5488 3 20.50160 0.00000 -20.50160 0.00000 0.00000 0.00000 ; imides
5482 5483 5484 5485 3 25.47638 0.00000 -25.47638 0.00000 0.00000 0.00000 ; amides O-C(O)-N-C
5482 5483 5484 5486 3
5482 5483 5484 5487 3
5488 5483 5484 5485 3 20.50160 0.00000 -20.50160 0.00000 0.00000 0.00000 ; amides wlj 6/20/97
5488 5483 5484 5486 3
5488 5483 5484 5487 3
5490 5491 5492 5493 3 33.20422 0.00000 -33.20422 0.00000 0.00000 0.00000 ; methylguanidinium ion
5490 5491 5492 5496 3 20.50160 0.00000 -20.50160 0.00000 0.00000 0.00000 ; imides
5491 5492 5493 5494 3
5491 5492 5493 5495 3
5496 5492 5493 5494 3
5496 5492 5493 5495 3
5498 5499 5500 5501 3 33.20422 0.00000 -33.20422 0.00000 0.00000 0.00000 ; methylguanidinium ion
5498 5499 5500 5506 3 20.50160 0.00000 -20.50160 0.00000 0.00000 0.00000 ; imides
5499 5500 5501 5502 3 25.47638 0.00000 -25.47638 0.00000 0.00000 0.00000 ; amides O-C(O)-N-C
5499 5500 5501 5504 3
5499 5500 5501 5505 3
5500 5501 5502 5503 3 16.73600 4.18400 -20.92000 0.00000 0.00000 0.00000 ; carbamates
5504 5501 5502 5503 3
5505 5501 5502 5503 3
5506 5500 5501 5502 3 20.50160 0.00000 -20.50160 0.00000 0.00000 0.00000 ; amides wlj 6/20/97
5506 5500 5501 5504 3
5506 5500 5501 5505 3
5508 5509 5510 5511 3 33.20422 0.00000 -33.20422 0.00000 0.00000 0.00000 ; methylguanidinium ion
5508 5509 5510 5514 3 20.50160 0.00000 -20.50160 0.00000 0.00000 0.00000 ; imides
5509 5510 5511 5512 3
5509 5510 5511 5513 3
5514 5510 5511 5512 3
5514 5510 5511 5513 3
5516 5517 5518 5519 3 33.20422 0.00000 -33.20422 0.00000 0.00000 0.00000 ; methylguanidinium ion
5516 5517 5518 5522 3 20.50160 0.00000 -20.50160 0.00000 0.00000 0.00000 ; imides
5517 5518 5519 5520 3
5517 5518 5519 5521 3
5522 5518 5519 5520 3
5522 5518 5519 5521 3
5524 5525 5526 5527 3 33.20422 0.00000 -33.20422 0.00000 0.00000 0.00000 ; methylguanidinium ion
5524 5525 5526 5531 3 20.50160 0.00000 -20.50160 0.00000 0.00000 0.00000 ; imides
5525 5526 5527 5528 3 25.47638 0.00000 -25.47638 0.00000 0.00000 0.00000 ; amides O-C(O)-N-C
5525 5526 5527 5529 3
5525 5526 5527 5530 3
5531 5526 5527 5528 3 20.50160 0.00000 -20.50160 0.00000 0.00000 0.00000 ; amides wlj 6/20/97
5531 5526 5527 5529 3
5531 5526 5527 5530 3
5533 5534 5535 5536 3 33.20422 0.00000 -33.20422 0.00000 0.00000 0.00000 ; methylguanidinium ion
5533 5534 5535 5540 3 20.50160 0.00000 -20.50160 0.00000 0.00000 0.00000 ; imides
5534 5535 5536 5537 3 25.47638 0.00000 -25.47638 0.00000 0.00000 0.00000 ; amides O-C(O)-N-C
5534 5535 5536 5538 3
5534 5535 5536 5539 3
5540 5535 5536 5537 3 20.50160 0.00000 -20.50160 0.00000 0.00000 0.00000 ; amides wlj 6/20/97
5540 5535 5536 5538 3
5540 5535 5536 5539 3
5542 5543 5544 5545 3 33.20422 0.00000 -33.20422 0.00000 0.00000 0.00000 ; methylguanidinium ion
5542 5543 5544 5548 3 20.50160 0.00000 -20.50160 0.00000 0.00000 0.00000 ; imides
5543 5544 5545 5546 3
5543 5544 5545 5547 3
5548 5544 5545 5546 3
5548 5544 5545 5547 3
5550 5551 5552 5553 3 33.20422 0.00000 -33.20422 0.00000 0.00000 0.00000 ; methylguanidinium ion
5550 5551 5552 5558 3 20.50160 0.00000 -20.50160 0.00000 0.00000 0.00000 ; imides
5551 5552 5553 5554 3 25.47638 0.00000 -25.47638 0.00000 0.00000 0.00000 ; amides O-C(O)-N-C
5551 5552 5553 5556 3
5551 5552 5553 5557 3
5552 5553 5554 5555 3 16.73600 4.18400 -20.92000 0.00000 0.00000 0.00000 ; carbamates
5556 5553 5554 5555 3
5557 5553 5554 5555 3
5558 5552 5553 5554 3 20.50160 0.00000 -20.50160 0.00000 0.00000 0.00000 ; amides wlj 6/20/97
5558 5552 5553 5556 3
5558 5552 5553 5557 3
5560 5561 5562 5563 3 33.20422 0.00000 -33.20422 0.00000 0.00000 0.00000 ; methylguanidinium ion
5560 5561 5562 5567 3 20.50160 0.00000 -20.50160 0.00000 0.00000 0.00000 ; imides
5561 5562 5563 5564 3 25.47638 0.00000 -25.47638 0.00000 0.00000 0.00000 ; amides O-C(O)-N-C
5561 5562 5563 5565 3
5561 5562 5563 5566 3
5567 5562 5563 5564 3 20.50160 0.00000 -20.50160 0.00000 0.00000 0.00000 ; amides wlj 6/20/97
5567 5562 5563 5565 3
5567 5562 5563 5566 3
5569 5570 5571 5572 3 33.20422 0.00000 -33.20422 0.00000 0.00000 0.00000 ; methylguanidinium ion
5569 5570 5571 5576 3 20.50160 0.00000 -20.50160 0.00000 0.00000 0.00000 ; imides
5570 5571 5572 5573 3 25.47638 0.00000 -25.47638 0.00000 0.00000 0.00000 ; amides O-C(O)-N-C
5570 5571 5572 5574 3
5570 5571 5572 5575 3
5576 5571 5572 5573 3 20.50160 0.00000 -20.50160 0.00000 0.00000 0.00000 ; amides wlj 6/20/97
5576 5571 5572 5574 3
5576 5571 5572 5575 3
5578 5579 5580 5581 3 33.20422 0.00000 -33.20422 0.00000 0.00000 0.00000 ; methylguanidinium ion
5578 5579 5580 5584 3 20.50160 0.00000 -20.50160 0.00000 0.00000 0.00000 ; imides
5579 5580 5581 5582 3
5579 5580 5581 5583 3
5584 5580 5581 5582 3
5584 5580 5581 5583 3
5586 5587 5588 5589 3 33.20422 0.00000 -33.20422 0.00000 0.00000 0.00000 ; methylguanidinium ion
5586 5587 5588 5592 3 20.50160 0.00000 -20.50160 0.00000 0.00000 0.00000 ; imides
5587 5588 5589 5590 3
5587 5588 5589 5591 3
5592 5588 5589 5590 3
5592 5588 5589 5591 3
5594 5595 5596 5597 3 33.20422 0.00000 -33.20422 0.00000 0.00000 0.00000 ; methylguanidinium ion
5594 5595 5596 5600 3 20.50160 0.00000 -20.50160 0.00000 0.00000 0.00000 ; imides
5595 5596 5597 5598 3
5595 5596 5597 5599 3
5600 5596 5597 5598 3
5600 5596 5597 5599 3
5602 5603 5604 5605 3 33.20422 0.00000 -33.20422 0.00000 0.00000 0.00000 ; methylguanidinium ion
5602 5603 5604 5608 3 20.50160 0.00000 -20.50160 0.00000 0.00000 0.00000 ; imides
5603 5604 5605 5606 3
5603 5604 5605 5607 3
5608 5604 5605 5606 3
5608 5604 5605 5607 3
5610 5611 5612 5613 3 33.20422 0.00000 -33.20422 0.00000 0.00000 0.00000 ; methylguanidinium ion
5610 5611 5612 5616 3 20.50160 0.00000 -20.50160 0.00000 0.00000 0.00000 ; imides
5611 5612 5613 5614 3
5611 5612 5613 5615 3
5616 5612 5613 5614 3
5616 5612 5613 5615 3
5618 5619 5620 5621 3 33.20422 0.00000 -33.20422 0.00000 0.00000 0.00000 ; methylguanidinium ion
5618 5619 5620 5625 3 20.50160 0.00000 -20.50160 0.00000 0.00000 0.00000 ; imides
5619 5620 5621 5622 3 25.47638 0.00000 -25.47638 0.00000 0.00000 0.00000 ; amides O-C(O)-N-C
5619 5620 5621 5623 3
5619 5620 5621 5624 3
5625 5620 5621 5622 3 20.50160 0.00000 -20.50160 0.00000 0.00000 0.00000 ; amides wlj 6/20/97
5625 5620 5621 5623 3
5625 5620 5621 5624 3
5627 5628 5629 5630 3 33.20422 0.00000 -33.20422 0.00000 0.00000 0.00000 ; methylguanidinium ion
5627 5628 5629 5634 3 20.50160 0.00000 -20.50160 0.00000 0.00000 0.00000 ; imides
5628 5629 5630 5631 3 25.47638 0.00000 -25.47638 0.00000 0.00000 0.00000 ; amides O-C(O)-N-C
5628 5629 5630 5632 3
5628 5629 5630 5633 3
5634 5629 5630 5631 3 20.50160 0.00000 -20.50160 0.00000 0.00000 0.00000 ; amides wlj 6/20/97
5634 5629 5630 5632 3
5634 5629 5630 5633 3
5636 5637 5638 5639 3 33.20422 0.00000 -33.20422 0.00000 0.00000 0.00000 ; methylguanidinium ion
5636 5637 5638 5642 3 20.50160 0.00000 -20.50160 0.00000 0.00000 0.00000 ; imides
5637 5638 5639 5640 3
5637 5638 5639 5641 3
5642 5638 5639 5640 3
5642 5638 5639 5641 3
5644 5645 5646 5647 3 33.20422 0.00000 -33.20422 0.00000 0.00000 0.00000 ; methylguanidinium ion
5644 5645 5646 5651 3 20.50160 0.00000 -20.50160 0.00000 0.00000 0.00000 ; imides
5645 5646 5647 5648 3 25.47638 0.00000 -25.47638 0.00000 0.00000 0.00000 ; amides O-C(O)-N-C
5645 5646 5647 5649 3
5645 5646 5647 5650 3
5651 5646 5647 5648 3 20.50160 0.00000 -20.50160 0.00000 0.00000 0.00000 ; amides wlj 6/20/97
5651 5646 5647 5649 3
5651 5646 5647 5650 3
5653 5654 5655 5656 3 33.20422 0.00000 -33.20422 0.00000 0.00000 0.00000 ; methylguanidinium ion
5653 5654 5655 5661 3 20.50160 0.00000 -20.50160 0.00000 0.00000 0.00000 ; imides
5654 5655 5656 5657 3 25.47638 0.00000 -25.47638 0.00000 0.00000 0.00000 ; amides O-C(O)-N-C
5654 5655 5656 5659 3
5654 5655 5656 5660 3
5655 5656 5657 5658 3 16.73600 4.18400 -20.92000 0.00000 0.00000 0.00000 ; carbamates
5659 5656 5657 5658 3
5660 5656 5657 5658 3
5661 5655 5656 5657 3 20.50160 0.00000 -20.50160 0.00000 0.00000 0.00000 ; amides wlj 6/20/97
5661 5655 5656 5659 3
5661 5655 5656 5660 3
5663 5664 5665 5666 3 33.20422 0.00000 -33.20422 0.00000 0.00000 0.00000 ; methylguanidinium ion
5663 5664 5665 5669 3 20.50160 0.00000 -20.50160 0.00000 0.00000 0.00000 ; imides
5664 5665 5666 5667 3
5664 5665 5666 5668 3
5669 5665 5666 5667 3
5669 5665 5666 5668 3
5671 5672 5673 5674 3 33.20422 0.00000 -33.20422 0.00000 0.00000 0.00000 ; methylguanidinium ion
5671 5672 5673 5678 3 20.50160 0.00000 -20.50160 0.00000 0.00000 0.00000 ; imides
5672 5673 5674 5675 3 25.47638 0.00000 -25.47638 0.00000 0.00000 0.00000 ; amides O-C(O)-N-C
5672 5673 5674 5676 3
5672 5673 5674 5677 3
5678 5673 5674 5675 3 20.50160 0.00000 -20.50160 0.00000 0.00000 0.00000 ; amides wlj 6/20/97
5678 5673 5674 5676 3
5678 5673 5674 5677 3
5680 5681 5682 5683 3 33.20422 0.00000 -33.20422 0.00000 0.00000 0.00000 ; methylguanidinium ion
5680 5681 5682 5687 3 20.50160 0.00000 -20.50160 0.00000 0.00000 0.00000 ; imides
5681 5682 5683 5684 3 25.47638 0.00000 -25.47638 0.00000 0.00000 0.00000 ; amides O-C(O)-N-C
5681 5682 5683 5685 3
5681 5682 5683 5686 3
5687 5682 5683 5684 3 20.50160 0.00000 -20.50160 0.00000 0.00000 0.00000 ; amides wlj 6/20/97
5687 5682 5683 5685 3
5687 5682 5683 5686 3
5689 5690 5691 5692 3 33.20422 0.00000 -33.20422 0.00000 0.00000 0.00000 ; methylguanidinium ion
5689 5690 5691 5696 3 20.50160 0.00000 -20.50160 0.00000 0.00000 0.00000 ; imides
5690 5691 5692 5693 3 25.47638 0.00000 -25.47638 0.00000 0.00000 0.00000 ; amides O-C(O)-N-C
5690 5691 5692 5694 3
5690 5691 5692 5695 3
5696 5691 5692 5693 3 20.50160 0.00000 -20.50160 0.00000 0.00000 0.00000 ; amides wlj 6/20/97
5696 5691 5692 5694 3
5696 5691 5692 5695 3
5698 5699 5700 5701 3 33.20422 0.00000 -33.20422 0.00000 0.00000 0.00000 ; methylguanidinium ion
5698 5699 5700 5705 3 20.50160 0.00000 -20.50160 0.00000 0.00000 0.00000 ; imides
5699 5700 5701 5702 3 25.47638 0.00000 -25.47638 0.00000 0.00000 0.00000 ; amides O-C(O)-N-C
5699 5700 5701 5703 3
5699 5700 5701 5704 3
5705 5700 5701 5702 3 20.50160 0.00000 -20.50160 0.00000 0.00000 0.00000 ; amides wlj 6/20/97
5705 5700 5701 5703 3
5705 5700 5701 5704 3
5707 5708 5709 5710 3 33.20422 0.00000 -33.20422 0.00000 0.00000 0.00000 ; methylguanidinium ion
5707 5708 5709 5713 3 20.50160 0.00000 -20.50160 0.00000 0.00000 0.00000 ; imides
5708 5709 5710 5711 3
5708 5709 5710 5712 3
5713 5709 5710 5711 3
5713 5709 5710 5712 3
5715 5716 5717 5718 3 33.20422 0.00000 -33.20422 0.00000 0.00000 0.00000 ; methylguanidinium ion
5715 5716 5717 5721 3 20.50160 0.00000 -20.50160 0.00000 0.00000 0.00000 ; imides
5716 5717 5718 5719 3
5716 5717 5718 5720 3
5721 5717 5718 5719 3
5721 5717 5718 5720 3
5723 5724 5725 5726 3 33.20422 0.00000 -33.20422 0.00000 0.00000 0.00000 ; methylguanidinium ion
5723 5724 5725 5731 3 20.50160 0.00000 -20.50160 0.00000 0.00000 0.00000 ; imides
5724 5725 5726 5727 3 25.47638 0.00000 -25.47638 0.00000 0.00000 0.00000 ; amides O-C(O)-N-C
5724 5725 5726 5729 3
5724 5725 5726 5730 3
5725 5726 5727 5728 3 16.73600 4.18400 -20.92000 0.00000 0.00000 0.00000 ; carbamates
5729 5726 5727 5728 3
5730 5726 5727 5728 3
5731 5725 5726 5727 3 20.50160 0.00000 -20.50160 0.00000 0.00000 0.00000 ; amides wlj 6/20/97
5731 5725 5726 5729 3
5731 5725 5726 5730 3
5733 5734 5735 5736 3 33.20422 0.00000 -33.20422 0.00000 0.00000 0.00000 ; methylguanidinium ion
5733 5734 5735 5740 3 20.50160 0.00000 -20.50160 0.00000 0.00000 0.00000 ; imides
5734 5735 5736 5737 3 25.47638 0.00000 -25.47638 0.00000 0.00000 0.00000 ; amides O-C(O)-N-C
5734 5735 5736 5738 3
5734 5735 5736 5739 3
5740 5735 5736 5737 3 20.50160 0.00000 -20.50160 0.00000 0.00000 0.00000 ; amides wlj 6/20/97
5740 5735 5736 5738 3
5740 5735 5736 5739 3
5742 5743 5744 5745 3 33.20422 0.00000 -33.20422 0.00000 0.00000 0.00000 ; methylguanidinium ion
5742 5743 5744 5749 3 20.50160 0.00000 -20.50160 0.00000 0.00000 0.00000 ; imides
5743 5744 5745 5746 3 25.47638 0.00000 -25.47638 0.00000 0.00000 0.00000 ; amides O-C(O)-N-C
5743 5744 5745 5747 3
5743 5744 5745 5748 3
5749 5744 5745 5746 3 20.50160 0.00000 -20.50160 0.00000 0.00000 0.00000 ; amides wlj 6/20/97
5749 5744 5745 5747 3
5749 5744 5745 5748 3
5751 5752 5753 5754 3 33.20422 0.00000 -33.20422 0.00000 0.00000 0.00000 ; methylguanidinium ion
5751 5752 5753 5758 3 20.50160 0.00000 -20.50160 0.00000 0.00000 0.00000 ; imides
5752 5753 5754 5755 3 25.47638 0.00000 -25.47638 0.00000 0.00000 0.00000 ; amides O-C(O)-N-C
5752 5753 5754 5756 3
5752 5753 5754 5757 3
5758 5753 5754 5755 3 20.50160 0.00000 -20.50160 0.00000 0.00000 0.00000 ; amides wlj 6/20/97
5758 5753 5754 5756 3
5758 5753 5754 5757 3
5760 5761 5762 5763 3 33.20422 0.00000 -33.20422 0.00000 0.00000 0.00000 ; methylguanidinium ion
5760 5761 5762 5767 3 20.50160 0.00000 -20.50160 0.00000 0.00000 0.00000 ; imides
5761 5762 5763 5764 3 25.47638 0.00000 -25.47638 0.00000 0.00000 0.00000 ; amides O-C(O)-N-C
5761 5762 5763 5765 3
5761 5762 5763 5766 3
5767 5762 5763 5764 3 20.50160 0.00000 -20.50160 0.00000 0.00000 0.00000 ; amides wlj 6/20/97
5767 5762 5763 5765 3
5767 5762 5763 5766 3
5769 5770 5771 5772 3 33.20422 0.00000 -33.20422 0.00000 0.00000 0.00000 ; methylguanidinium ion
5769 5770 5771 5776 3 20.50160 0.00000 -20.50160 0.00000 0.00000 0.00000 ; imides
5770 5771 5772 5773 3 25.47638 0.00000 -25.47638 0.00000 0.00000 0.00000 ; amides O-C(O)-N-C
5770 5771 5772 5774 3
5770 5771 5772 5775 3
5776 5771 5772 5773 3 20.50160 0.00000 -20.50160 0.00000 0.00000 0.00000 ; amides wlj 6/20/97
5776 5771 5772 5774 3
5776 5771 5772 5775 3
5778 5779 5780 5781 3 33.20422 0.00000 -33.20422 0.00000 0.00000 0.00000 ; methylguanidinium ion
5778 5779 5780 5785 3 20.50160 0.00000 -20.50160 0.00000 0.00000 0.00000 ; imides
5779 5780 5781 5782 3 25.47638 0.00000 -25.47638 0.00000 0.00000 0.00000 ; amides O-C(O)-N-C
5779 5780 5781 5783 3
5779 5780 5781 5784 3
5785 5780 5781 5782 3 20.50160 0.00000 -20.50160 0.00000 0.00000 0.00000 ; amides wlj 6/20/97
5785 5780 5781 5783 3
5785 5780 5781 5784 3
5787 5788 5789 5790 3 33.20422 0.00000 -33.20422 0.00000 0.00000 0.00000 ; methylguanidinium ion
5787 5788 5789 5794 3 20.50160 0.00000 -20.50160 0.00000 0.00000 0.00000 ; imides
5788 5789 5790 5791 3 25.47638 0.00000 -25.47638 0.00000 0.00000 0.00000 ; amides O-C(O)-N-C
5788 5789 5790 5792 3
5788 5789 5790 5793 3
5794 5789 5790 5791 3 20.50160 0.00000 -20.50160 0.00000 0.00000 0.00000 ; amides wlj 6/20/97
5794 5789 5790 5792 3
5794 5789 5790 5793 3
5796 5797 5798 5799 3 33.20422 0.00000 -33.20422 0.00000 0.00000 0.00000 ; methylguanidinium ion
5796 5797 5798 5802 3 20.50160 0.00000 -20.50160 0.00000 0.00000 0.00000 ; imides
5797 5798 5799 5800 3
5797 5798 5799 5801 3
5802 5798 5799 5800 3
5802 5798 5799 5801 3
5804 5805 5806 5807 3 33.20422 0.00000 -33.20422 0.00000 0.00000 0.00000 ; methylguanidinium ion
5804 5805 5806 5811 3 20.50160 0.00000 -20.50160 0.00000 0.00000 0.00000 ; imides
5805 5806 5807 5808 3 25.47638 0.00000 -25.47638 0.00000 0.00000 0.00000 ; amides O-C(O)-N-C
5805 5806 5807 5809 3
5805 5806 5807 5810 3
5811 5806 5807 5808 3 20.50160 0.00000 -20.50160 0.00000 0.00000 0.00000 ; amides wlj 6/20/97
5811 5806 5807 5809 3
5811 5806 5807 5810 3
5813 5814 5815 5816 3 33.20422 0.00000 -33.20422 0.00000 0.00000 0.00000 ; methylguanidinium ion
5813 5814 5815 5820 3 20.50160 0.00000 -20.50160 0.00000 0.00000 0.00000 ; imides
5814 5815 5816 5817 3 25.47638 0.00000 -25.47638 0.00000 0.00000 0.00000 ; amides O-C(O)-N-C
5814 5815 5816 5818 3
5814 5815 5816 5819 3
5820 5815 5816 5817 3 20.50160 0.00000 -20.50160 0.00000 0.00000 0.00000 ; amides wlj 6/20/97
5820 5815 5816 5818 3
5820 5815 5816 5819 3
5822 5823 5824 5825 3 33.20422 0.00000 -33.20422 0.00000 0.00000 0.00000 ; methylguanidinium ion
5822 5823 5824 5828 3 20.50160 0.00000 -20.50160 0.00000 0.00000 0.00000 ; imides
5823 5824 5825 5826 3
5823 5824 5825 5827 3
5828 5824 5825 5826 3
5828 5824 5825 5827 3
5830 5831 5832 5833 3 33.20422 0.00000 -33.20422 0.00000 0.00000 0.00000 ; methylguanidinium ion
5830 5831 5832 5836 3 20.50160 0.00000 -20.50160 0.00000 0.00000 0.00000 ; imides
5831 5832 5833 5834 3
5831 5832 5833 5835 3
5836 5832 5833 5834 3
5836 5832 5833 5835 3
5838 5839 5840 5841 3 33.20422 0.00000 -33.20422 0.00000 0.00000 0.00000 ; methylguanidinium ion
5838 5839 5840 5844 3 20.50160 0.00000 -20.50160 0.00000 0.00000 0.00000 ; imides
5839 5840 5841 5842 3
5839 5840 5841 5843 3
5844 5840 5841 5842 3
5844 5840 5841 5843 3
5846 5847 5848 5849 3 33.20422 0.00000 -33.20422 0.00000 0.00000 0.00000 ; methylguanidinium ion
5846 5847 5848 5853 3 20.50160 0.00000 -20.50160 0.00000 0.00000 0.00000 ; imides
5847 5848 5849 5850 3 25.47638 0.00000 -25.47638 0.00000 0.00000 0.00000 ; amides O-C(O)-N-C
5847 5848 5849 5851 3
5847 5848 5849 5852 3
5853 5848 5849 5850 3 20.50160 0.00000 -20.50160 0.00000 0.00000 0.00000 ; amides wlj 6/20/97
5853 5848 5849 5851 3
5853 5848 5849 5852 3
5855 5856 5857 5858 3 33.20422 0.00000 -33.20422 0.00000 0.00000 0.00000 ; methylguanidinium ion
5855 5856 5857 5861 3 20.50160 0.00000 -20.50160 0.00000 0.00000 0.00000 ; imides
5856 5857 5858 5859 3
5856 5857 5858 5860 3
5861 5857 5858 5859 3
5861 5857 5858 5860 3
5863 5864 5865 5866 3 33.20422 0.00000 -33.20422 0.00000 0.00000 0.00000 ; methylguanidinium ion
5863 5864 5865 5870 3 20.50160 0.00000 -20.50160 0.00000 0.00000 0.00000 ; imides
5864 5865 5866 5867 3 25.47638 0.00000 -25.47638 0.00000 0.00000 0.00000 ; amides O-C(O)-N-C
5864 5865 5866 5868 3
5864 5865 5866 5869 3
5870 5865 5866 5867 3 20.50160 0.00000 -20.50160 0.00000 0.00000 0.00000 ; amides wlj 6/20/97
5870 5865 5866 5868 3
5870 5865 5866 5869 3
5872 5873 5874 5875 3 33.20422 0.00000 -33.20422 0.00000 0.00000 0.00000 ; methylguanidinium ion
5872 5873 5874 5878 3 20.50160 0.00000 -20.50160 0.00000 0.00000 0.00000 ; imides
5873 5874 5875 5876 3
5873 5874 5875 5877 3
5878 5874 5875 5876 3
5878 5874 5875 5877 3
5880 5881 5882 5883 3 33.20422 0.00000 -33.20422 0.00000 0.00000 0.00000 ; methylguanidinium ion
5880 5881 5882 5887 3 20.50160 0.00000 -20.50160 0.00000 0.00000 0.00000 ; imides
5881 5882 5883 5884 3 25.47638 0.00000 -25.47638 0.00000 0.00000 0.00000 ; amides O-C(O)-N-C
5881 5882 5883 5885 3
5881 5882 5883 5886 3
5887 5882 5883 5884 3 20.50160 0.00000 -20.50160 0.00000 0.00000 0.00000 ; amides wlj 6/20/97
5887 5882 5883 5885 3
5887 5882 5883 5886 3
5889 5890 5891 5892 3 33.20422 0.00000 -33.20422 0.00000 0.00000 0.00000 ; methylguanidinium ion
5889 5890 5891 5895 3 20.50160 0.00000 -20.50160 0.00000 0.00000 0.00000 ; imides
5890 5891 5892 5893 3
5890 5891 5892 5894 3
5895 5891 5892 5893 3
5895 5891 5892 5894 3
5897 5898 5899 5900 3 33.20422 0.00000 -33.20422 0.00000 0.00000 0.00000 ; methylguanidinium ion
5897 5898 5899 5903 3 20.50160 0.00000 -20.50160 0.00000 0.00000 0.00000 ; imides
5898 5899 5900 5901 3
5898 5899 5900 5902 3
5903 5899 5900 5901 3
5903 5899 5900 5902 3
5905 5906 5907 5908 3 33.20422 0.00000 -33.20422 0.00000 0.00000 0.00000 ; methylguanidinium ion
5905 5906 5907 5912 3 20.50160 0.00000 -20.50160 0.00000 0.00000 0.00000 ; imides
5906 5907 5908 5909 3 25.47638 0.00000 -25.47638 0.00000 0.00000 0.00000 ; amides O-C(O)-N-C
5906 5907 5908 5910 3
5906 5907 5908 5911 3
5912 5907 5908 5909 3 20.50160 0.00000 -20.50160 0.00000 0.00000 0.00000 ; amides wlj 6/20/97
5912 5907 5908 5910 3
5912 5907 5908 5911 3
5914 5915 5916 5917 3 33.20422 0.00000 -33.20422 0.00000 0.00000 0.00000 ; methylguanidinium ion
5914 5915 5916 5921 3 20.50160 0.00000 -20.50160 0.00000 0.00000 0.00000 ; imides
5915 5916 5917 5918 3 25.47638 0.00000 -25.47638 0.00000 0.00000 0.00000 ; amides O-C(O)-N-C
5915 5916 5917 5919 3
5915 5916 5917 5920 3
5921 5916 5917 5918 3 20.50160 0.00000 -20.50160 0.00000 0.00000 0.00000 ; amides wlj 6/20/97
5921 5916 5917 5919 3
5921 5916 5917 5920 3
5923 5924 5925 5926 3 33.20422 0.00000 -33.20422 0.00000 0.00000 0.00000 ; methylguanidinium ion
5923 5924 5925 5930 3 20.50160 0.00000 -20.50160 0.00000 0.00000 0.00000 ; imides
5924 5925 5926 5927 3 25.47638 0.00000 -25.47638 0.00000 0.00000 0.00000 ; amides O-C(O)-N-C
5924 5925 5926 5928 3
5924 5925 5926 5929 3
5930 5925 5926 5927 3 20.50160 0.00000 -20.50160 0.00000 0.00000 0.00000 ; amides wlj 6/20/97
5930 5925 5926 5928 3
5930 5925 5926 5929 3
5932 5933 5934 5935 3 33.20422 0.00000 -33.20422 0.00000 0.00000 0.00000 ; methylguanidinium ion
5932 5933 5934 5938 3 20.50160 0.00000 -20.50160 0.00000 0.00000 0.00000 ; imides
5933 5934 5935 5936 3
5933 5934 5935 5937 3
5938 5934 5935 5936 3
5938 5934 5935 5937 3
5940 5941 5942 5943 3 33.20422 0.00000 -33.20422 0.00000 0.00000 0.00000 ; methylguanidinium ion
5940 5941 5942 5947 3 20.50160 0.00000 -20.50160 0.00000 0.00000 0.00000 ; imides
5941 5942 5943 5944 3 25.47638 0.00000 -25.47638 0.00000 0.00000 0.00000 ; amides O-C(O)-N-C
5941 5942 5943 5945 3
5941 5942 5943 5946 3
5947 5942 5943 5944 3 20.50160 0.00000 -20.50160 0.00000 0.00000 0.00000 ; amides wlj 6/20/97
5947 5942 5943 5945 3
5947 5942 5943 5946 3
5949 5950 5951 5952 3 33.20422 0.00000 -33.20422 0.00000 0.00000 0.00000 ; methylguanidinium ion
5949 5950 5951 5955 3 20.50160 0.00000 -20.50160 0.00000 0.00000 0.00000 ; imides
5950 5951 5952 5953 3
5950 5951 5952 5954 3
5955 5951 5952 5953 3
5955 5951 5952 5954 3
5957 5958 5959 5960 3 33.20422 0.00000 -33.20422 0.00000 0.00000 0.00000 ; methylguanidinium ion
5957 5958 5959 5964 3 20.50160 0.00000 -20.50160 0.00000 0.00000 0.00000 ; imides
5958 5959 5960 5961 3 25.47638 0.00000 -25.47638 0.00000 0.00000 0.00000 ; amides O-C(O)-N-C
5958 5959 5960 5962 3
5958 5959 5960 5963 3
5964 5959 5960 5961 3 20.50160 0.00000 -20.50160 0.00000 0.00000 0.00000 ; amides wlj 6/20/97
5964 5959 5960 5962 3
5964 5959 5960 5963 3
5966 5967 5968 5969 3 33.20422 0.00000 -33.20422 0.00000 0.00000 0.00000 ; methylguanidinium ion
5966 5967 5968 5972 3 20.50160 0.00000 -20.50160 0.00000 0.00000 0.00000 ; imides
5967 5968 5969 5970 3
5967 5968 5969 5971 3
5972 5968 5969 5970 3
5972 5968 5969 5971 3
5974 5975 5976 5977 3 33.20422 0.00000 -33.20422 0.00000 0.00000 0.00000 ; methylguanidinium ion
5974 5975 5976 5981 3 20.50160 0.00000 -20.50160 0.00000 0.00000 0.00000 ; imides
5975 5976 5977 5978 3 25.47638 0.00000 -25.47638 0.00000 0.00000 0.00000 ; amides O-C(O)-N-C
5975 5976 5977 5979 3
5975 5976 5977 5980 3
5981 5976 5977 5978 3 20.50160 0.00000 -20.50160 0.00000 0.00000 0.00000 ; amides wlj 6/20/97
5981 5976 5977 5979 3
5981 5976 5977 5980 3
5983 5984 5985 5986 3 33.20422 0.00000 -33.20422 0.00000 0.00000 0.00000 ; methylguanidinium ion
5983 5984 5985 5990 3 20.50160 0.00000 -20.50160 0.00000 0.00000 0.00000 ; imides
5984 5985 5986 5987 3 25.47638 0.00000 -25.47638 0.00000 0.00000 0.00000 ; amides O-C(O)-N-C
5984 5985 5986 5988 3
5984 5985 5986 5989 3
5990 5985 5986 5987 3 20.50160 0.00000 -20.50160 0.00000 0.00000 0.00000 ; amides wlj 6/20/97
5990 5985 5986 5988 3
5990 5985 5986 5989 3
5992 5993 5994 5995 3 33.20422 0.00000 -33.20422 0.00000 0.00000 0.00000 ; methylguanidinium ion
5992 5993 5994 5999 3 20.50160 0.00000 -20.50160 0.00000 0.00000 0.00000 ; imides
5993 5994 5995 5996 3 25.47638 0.00000 -25.47638 0.00000 0.00000 0.00000 ; amides O-C(O)-N-C
5993 5994 5995 5997 3
5993 5994 5995 5998 3
5999 5994 5995 5996 3 20.50160 0.00000 -20.50160 0.00000 0.00000 0.00000 ; amides wlj 6/20/97
5999 5994 5995 5997 3
5999 5994 5995 5998 3
6001 6002 6003 6004 3 33.20422 0.00000 -33.20422 0.00000 0.00000 0.00000 ; methylguanidinium ion
6001 6002 6003 6007 3 20.50160 0.00000 -20.50160 0.00000 0.00000 0.00000 ; imides
6002 6003 6004 6005 3
6002 6003 6004 6006 3
6007 6003 6004 6005 3
6007 6003 6004 6006 3
6009 6010 6011 6012 3 33.20422 0.00000 -33.20422 0.00000 0.00000 0.00000 ; methylguanidinium ion
6009 6010 6011 6017 3 20.50160 0.00000 -20.50160 0.00000 0.00000 0.00000 ; imides
6010 6011 6012 6013 3 25.47638 0.00000 -25.47638 0.00000 0.00000 0.00000 ; amides O-C(O)-N-C
6010 6011 6012 6015 3
6010 6011 6012 6016 3
6011 6012 6013 6014 3 16.73600 4.18400 -20.92000 0.00000 0.00000 0.00000 ; carbamates
6015 6012 6013 6014 3
6016 6012 6013 6014 3
6017 6011 6012 6013 3 20.50160 0.00000 -20.50160 0.00000 0.00000 0.00000 ; amides wlj 6/20/97
6017 6011 6012 6015 3
6017 6011 6012 6016 3
6019 6020 6021 6022 3 33.20422 0.00000 -33.20422 0.00000 0.00000 0.00000 ; methylguanidinium ion
6019 6020 6021 6025 3 20.50160 0.00000 -20.50160 0.00000 0.00000 0.00000 ; imides
6020 6021 6022 6023 3
6020 6021 6022 6024 3
6025 6021 6022 6023 3
6025 6021 6022 6024 3
6027 6028 6029 6030 3 33.20422 0.00000 -33.20422 0.00000 0.00000 0.00000 ; methylguanidinium ion
6027 6028 6029 6033 3 20.50160 0.00000 -20.50160 0.00000 0.00000 0.00000 ; imides
6028 6029 6030 6031 3
6028 6029 6030 6032 3
6033 6029 6030 6031 3
6033 6029 6030 6032 3
6035 6036 6037 6038 3 33.20422 0.00000 -33.20422 0.00000 0.00000 0.00000 ; methylguanidinium ion
6035 6036 6037 6041 3 20.50160 0.00000 -20.50160 0.00000 0.00000 0.00000 ; imides
6036 6037 6038 6039 3
6036 6037 6038 6040 3
6041 6037 6038 6039 3
6041 6037 6038 6040 3
6043 6044 6045 6046 3 33.20422 0.00000 -33.20422 0.00000 0.00000 0.00000 ; methylguanidinium ion
6043 6044 6045 6050 3 20.50160 0.00000 -20.50160 0.00000 0.00000 0.00000 ; imides
6044 6045 6046 6047 3 25.47638 0.00000 -25.47638 0.00000 0.00000 0.00000 ; amides O-C(O)-N-C
6044 6045 6046 6048 3
6044 6045 6046 6049 3
6050 6045 6046 6047 3 20.50160 0.00000 -20.50160 0.00000 0.00000 0.00000 ; amides wlj 6/20/97
6050 6045 6046 6048 3
6050 6045 6046 6049 3
6052 6053 6054 6055 3 33.20422 0.00000 -33.20422 0.00000 0.00000 0.00000 ; methylguanidinium ion
6052 6053 6054 6060 3 20.50160 0.00000 -20.50160 0.00000 0.00000 0.00000 ; imides
6053 6054 6055 6056 3 25.47638 0.00000 -25.47638 0.00000 0.00000 0.00000 ; amides O-C(O)-N-C
6053 6054 6055 6058 3
6053 6054 6055 6059 3
6054 6055 6056 6057 3 16.73600 4.18400 -20.92000 0.00000 0.00000 0.00000 ; carbamates
6058 6055 6056 6057 3
6059 6055 6056 6057 3
6060 6054 6055 6056 3 20.50160 0.00000 -20.50160 0.00000 0.00000 0.00000 ; amides wlj 6/20/97
6060 6054 6055 6058 3
6060 6054 6055 6059 3
6062 6063 6064 6065 3 33.20422 0.00000 -33.20422 0.00000 0.00000 0.00000 ; methylguanidinium ion
6062 6063 6064 6068 3 20.50160 0.00000 -20.50160 0.00000 0.00000 0.00000 ; imides
6063 6064 6065 6066 3
6063 6064 6065 6067 3
6068 6064 6065 6066 3
6068 6064 6065 6067 3
6070 6071 6072 6073 3 33.20422 0.00000 -33.20422 0.00000 0.00000 0.00000 ; methylguanidinium ion
6070 6071 6072 6077 3 20.50160 0.00000 -20.50160 0.00000 0.00000 0.00000 ; imides
6071 6072 6073 6074 3 25.47638 0.00000 -25.47638 0.00000 0.00000 0.00000 ; amides O-C(O)-N-C
6071 6072 6073 6075 3
6071 6072 6073 6076 3
6077 6072 6073 6074 3 20.50160 0.00000 -20.50160 0.00000 0.00000 0.00000 ; amides wlj 6/20/97
6077 6072 6073 6075 3
6077 6072 6073 6076 3
6079 6080 6081 6082 3 33.20422 0.00000 -33.20422 0.00000 0.00000 0.00000 ; methylguanidinium ion
6079 6080 6081 6086 3 20.50160 0.00000 -20.50160 0.00000 0.00000 0.00000 ; imides
6080 6081 6082 6083 3 25.47638 0.00000 -25.47638 0.00000 0.00000 0.00000 ; amides O-C(O)-N-C
6080 6081 6082 6084 3
6080 6081 6082 6085 3
6086 6081 6082 6083 3 20.50160 0.00000 -20.50160 0.00000 0.00000 0.00000 ; amides wlj 6/20/97
6086 6081 6082 6084 3
6086 6081 6082 6085 3
6088 6089 6090 6091 3 33.20422 0.00000 -33.20422 0.00000 0.00000 0.00000 ; methylguanidinium ion
6088 6089 6090 6095 3 20.50160 0.00000 -20.50160 0.00000 0.00000 0.00000 ; imides
6089 6090 6091 6092 3 25.47638 0.00000 -25.47638 0.00000 0.00000 0.00000 ; amides O-C(O)-N-C
6089 6090 6091 6093 3
6089 6090 6091 6094 3
6095 6090 6091 6092 3 20.50160 0.00000 -20.50160 0.00000 0.00000 0.00000 ; amides wlj 6/20/97
6095 6090 6091 6093 3
6095 6090 6091 6094 3
6097 6098 6099 6100 3 33.20422 0.00000 -33.20422 0.00000 0.00000 0.00000 ; methylguanidinium ion
6097 6098 6099 6104 3 20.50160 0.00000 -20.50160 0.00000 0.00000 0.00000 ; imides
6098 6099 6100 6101 3 25.47638 0.00000 -25.47638 0.00000 0.00000 0.00000 ; amides O-C(O)-N-C
6098 6099 6100 6102 3
6098 6099 6100 6103 3
6104 6099 6100 6101 3 20.50160 0.00000 -20.50160 0.00000 0.00000 0.00000 ; amides wlj 6/20/97
6104 6099 6100 6102 3
6104 6099 6100 6103 3
6106 6107 6108 6109 3 33.20422 0.00000 -33.20422 0.00000 0.00000 0.00000 ; methylguanidinium ion
6106 6107 6108 6112 3 20.50160 0.00000 -20.50160 0.00000 0.00000 0.00000 ; imides
6107 6108 6109 6110 3
6107 6108 6109 6111 3
6112 6108 6109 6110 3
6112 6108 6109 6111 3
6114 6115 6116 6117 3 33.20422 0.00000 -33.20422 0.00000 0.00000 0.00000 ; methylguanidinium ion
6114 6115 6116 6121 3 20.50160 0.00000 -20.50160 0.00000 0.00000 0.00000 ; imides
6115 6116 6117 6118 3 25.47638 0.00000 -25.47638 0.00000 0.00000 0.00000 ; amides O-C(O)-N-C
6115 6116 6117 6119 3
6115 6116 6117 6120 3
6121 6116 6117 6118 3 20.50160 0.00000 -20.50160 0.00000 0.00000 0.00000 ; amides wlj 6/20/97
6121 6116 6117 6119 3
6121 6116 6117 6120 3
6123 6124 6125 6126 3 33.20422 0.00000 -33.20422 0.00000 0.00000 0.00000 ; methylguanidinium ion
6123 6124 6125 6130 3 20.50160 0.00000 -20.50160 0.00000 0.00000 0.00000 ; imides
6124 6125 6126 6127 3 25.47638 0.00000 -25.47638 0.00000 0.00000 0.00000 ; amides O-C(O)-N-C
6124 6125 6126 6128 3
6124 6125 6126 6129 3
6130 6125 6126 6127 3 20.50160 0.00000 -20.50160 0.00000 0.00000 0.00000 ; amides wlj 6/20/97
6130 6125 6126 6128 3
6130 6125 6126 6129 3
6132 6133 6134 6135 3 33.20422 0.00000 -33.20422 0.00000 0.00000 0.00000 ; methylguanidinium ion
6132 6133 6134 6138 3 20.50160 0.00000 -20.50160 0.00000 0.00000 0.00000 ; imides
6133 6134 6135 6136 3
6133 6134 6135 6137 3
6138 6134 6135 6136 3
6138 6134 6135 6137 3
6140 6141 6142 6143 3 33.20422 0.00000 -33.20422 0.00000 0.00000 0.00000 ; methylguanidinium ion
6140 6141 6142 6147 3 20.50160 0.00000 -20.50160 0.00000 0.00000 0.00000 ; imides
6141 6142 6143 6144 3 25.47638 0.00000 -25.47638 0.00000 0.00000 0.00000 ; amides O-C(O)-N-C
6141 6142 6143 6145 3
6141 6142 6143 6146 3
6147 6142 6143 6144 3 20.50160 0.00000 -20.50160 0.00000 0.00000 0.00000 ; amides wlj 6/20/97
6147 6142 6143 6145 3
6147 6142 6143 6146 3
6149 6150 6151 6152 3 33.20422 0.00000 -33.20422 0.00000 0.00000 0.00000 ; methylguanidinium ion
6149 6150 6151 6156 3 20.50160 0.00000 -20.50160 0.00000 0.00000 0.00000 ; imides
6150 6151 6152 6153 3 25.47638 0.00000 -25.47638 0.00000 0.00000 0.00000 ; amides O-C(O)-N-C
6150 6151 6152 6154 3
6150 6151 6152 6155 3
6156 6151 6152 6153 3 20.50160 0.00000 -20.50160 0.00000 0.00000 0.00000 ; amides wlj 6/20/97
6156 6151 6152 6154 3
6156 6151 6152 6155 3
6158 6159 6160 6161 3 33.20422 0.00000 -33.20422 0.00000 0.00000 0.00000 ; methylguanidinium ion
6158 6159 6160 6165 3 20.50160 0.00000 -20.50160 0.00000 0.00000 0.00000 ; imides
6159 6160 6161 6162 3 25.47638 0.00000 -25.47638 0.00000 0.00000 0.00000 ; amides O-C(O)-N-C
6159 6160 6161 6163 3
6159 6160 6161 6164 3
6165 6160 6161 6162 3 20.50160 0.00000 -20.50160 0.00000 0.00000 0.00000 ; amides wlj 6/20/97
6165 6160 6161 6163 3
6165 6160 6161 6164 3
6167 6168 6169 6170 3 33.20422 0.00000 -33.20422 0.00000 0.00000 0.00000 ; methylguanidinium ion
6167 6168 6169 6175 3 20.50160 0.00000 -20.50160 0.00000 0.00000 0.00000 ; imides
6168 6169 6170 6171 3 25.47638 0.00000 -25.47638 0.00000 0.00000 0.00000 ; amides O-C(O)-N-C
6168 6169 6170 6173 3
6168 6169 6170 6174 3
6169 6170 6171 6172 3 16.73600 4.18400 -20.92000 0.00000 0.00000 0.00000 ; carbamates
6173 6170 6171 6172 3
6174 6170 6171 6172 3
6175 6169 6170 6171 3 20.50160 0.00000 -20.50160 0.00000 0.00000 0.00000 ; amides wlj 6/20/97
6175 6169 6170 6173 3
6175 6169 6170 6174 3
6177 6178 6179 6180 3 33.20422 0.00000 -33.20422 0.00000 0.00000 0.00000 ; methylguanidinium ion
6177 6178 6179 6184 3 20.50160 0.00000 -20.50160 0.00000 0.00000 0.00000 ; imides
6178 6179 6180 6181 3 25.47638 0.00000 -25.47638 0.00000 0.00000 0.00000 ; amides O-C(O)-N-C
6178 6179 6180 6182 3
6178 6179 6180 6183 3
6184 6179 6180 6181 3 20.50160 0.00000 -20.50160 0.00000 0.00000 0.00000 ; amides wlj 6/20/97
6184 6179 6180 6182 3
6184 6179 6180 6183 3
6186 6187 6188 6189 3 33.20422 0.00000 -33.20422 0.00000 0.00000 0.00000 ; methylguanidinium ion
6186 6187 6188 6193 3 20.50160 0.00000 -20.50160 0.00000 0.00000 0.00000 ; imides
6187 6188 6189 6190 3 25.47638 0.00000 -25.47638 0.00000 0.00000 0.00000 ; amides O-C(O)-N-C
6187 6188 6189 6191 3
6187 6188 6189 6192 3
6193 6188 6189 6190 3 20.50160 0.00000 -20.50160 0.00000 0.00000 0.00000 ; amides wlj 6/20/97
6193 6188 6189 6191 3
6193 6188 6189 6192 3
6195 6196 6197 6198 3 33.20422 0.00000 -33.20422 0.00000 0.00000 0.00000 ; methylguanidinium ion
6195 6196 6197 6201 3 20.50160 0.00000 -20.50160 0.00000 0.00000 0.00000 ; imides
6196 6197 6198 6199 3
6196 6197 6198 6200 3
6201 6197 6198 6199 3
6201 6197 6198 6200 3
6203 6204 6205 6206 3 33.20422 0.00000 -33.20422 0.00000 0.00000 0.00000 ; methylguanidinium ion
6203 6204 6205 6210 3 20.50160 0.00000 -20.50160 0.00000 0.00000 0.00000 ; imides
6204 6205 6206 6207 3 25.47638 0.00000 -25.47638 0.00000 0.00000 0.00000 ; amides O-C(O)-N-C
6204 6205 6206 6208 3
6204 6205 6206 6209 3
6210 6205 6206 6207 3 20.50160 0.00000 -20.50160 0.00000 0.00000 0.00000 ; amides wlj 6/20/97
6210 6205 6206 6208 3
6210 6205 6206 6209 3
6212 6213 6214 6215 3 33.20422 0.00000 -33.20422 0.00000 0.00000 0.00000 ; methylguanidinium ion
6212 6213 6214 6219 3 20.50160 0.00000 -20.50160 0.00000 0.00000 0.00000 ; imides
6213 6214 6215 6216 3 25.47638 0.00000 -25.47638 0.00000 0.00000 0.00000 ; amides O-C(O)-N-C
6213 6214 6215 6217 3
6213 6214 6215 6218 3
6219 6214 6215 6216 3 20.50160 0.00000 -20.50160 0.00000 0.00000 0.00000 ; amides wlj 6/20/97
6219 6214 6215 6217 3
6219 6214 6215 6218 3
6221 6222 6223 6224 3 33.20422 0.00000 -33.20422 0.00000 0.00000 0.00000 ; methylguanidinium ion
6221 6222 6223 6229 3 20.50160 0.00000 -20.50160 0.00000 0.00000 0.00000 ; imides
6222 6223 6224 6225 3 25.47638 0.00000 -25.47638 0.00000 0.00000 0.00000 ; amides O-C(O)-N-C
6222 6223 6224 6227 3
6222 6223 6224 6228 3
6223 6224 6225 6226 3 16.73600 4.18400 -20.92000 0.00000 0.00000 0.00000 ; carbamates
6227 6224 6225 6226 3
6228 6224 6225 6226 3
6229 6223 6224 6225 3 20.50160 0.00000 -20.50160 0.00000 0.00000 0.00000 ; amides wlj 6/20/97
6229 6223 6224 6227 3
6229 6223 6224 6228 3
6231 6232 6233 6234 3 33.20422 0.00000 -33.20422 0.00000 0.00000 0.00000 ; methylguanidinium ion
6231 6232 6233 6238 3 20.50160 0.00000 -20.50160 0.00000 0.00000 0.00000 ; imides
6232 6233 6234 6235 3 25.47638 0.00000 -25.47638 0.00000 0.00000 0.00000 ; amides O-C(O)-N-C
6232 6233 6234 6236 3
6232 6233 6234 6237 3
6238 6233 6234 6235 3 20.50160 0.00000 -20.50160 0.00000 0.00000 0.00000 ; amides wlj 6/20/97
6238 6233 6234 6236 3
6238 6233 6234 6237 3
6240 6241 6242 6243 3 33.20422 0.00000 -33.20422 0.00000 0.00000 0.00000 ; methylguanidinium ion
6240 6241 6242 6248 3 20.50160 0.00000 -20.50160 0.00000 0.00000 0.00000 ; imides
6241 6242 6243 6244 3 25.47638 0.00000 -25.47638 0.00000 0.00000 0.00000 ; amides O-C(O)-N-C
6241 6242 6243 6246 3
6241 6242 6243 6247 3
6242 6243 6244 6245 3 16.73600 4.18400 -20.92000 0.00000 0.00000 0.00000 ; carbamates
6246 6243 6244 6245 3
6247 6243 6244 6245 3
6248 6242 6243 6244 3 20.50160 0.00000 -20.50160 0.00000 0.00000 0.00000 ; amides wlj 6/20/97
6248 6242 6243 6246 3
6248 6242 6243 6247 3
6250 6251 6252 6253 3 33.20422 0.00000 -33.20422 0.00000 0.00000 0.00000 ; methylguanidinium ion
6250 6251 6252 6256 3 20.50160 0.00000 -20.50160 0.00000 0.00000 0.00000 ; imides
6251 6252 6253 6254 3
6251 6252 6253 6255 3
6256 6252 6253 6254 3
6256 6252 6253 6255 3
6258 6259 6260 6261 3 33.20422 0.00000 -33.20422 0.00000 0.00000 0.00000 ; methylguanidinium ion
6258 6259 6260 6266 3 20.50160 0.00000 -20.50160 0.00000 0.00000 0.00000 ; imides
6259 6260 6261 6262 3 25.47638 0.00000 -25.47638 0.00000 0.00000 0.00000 ; amides O-C(O)-N-C
6259 6260 6261 6264 3
6259 6260 6261 6265 3
6260 6261 6262 6263 3 16.73600 4.18400 -20.92000 0.00000 0.00000 0.00000 ; carbamates
6264 6261 6262 6263 3
6265 6261 6262 6263 3
6266 6260 6261 6262 3 20.50160 0.00000 -20.50160 0.00000 0.00000 0.00000 ; amides wlj 6/20/97
6266 6260 6261 6264 3
6266 6260 6261 6265 3
6268 6269 6270 6271 3 33.20422 0.00000 -33.20422 0.00000 0.00000 0.00000 ; methylguanidinium ion
6268 6269 6270 6275 3 20.50160 0.00000 -20.50160 0.00000 0.00000 0.00000 ; imides
6269 6270 6271 6272 3 25.47638 0.00000 -25.47638 0.00000 0.00000 0.00000 ; amides O-C(O)-N-C
6269 6270 6271 6273 3
6269 6270 6271 6274 3
6275 6270 6271 6272 3 20.50160 0.00000 -20.50160 0.00000 0.00000 0.00000 ; amides wlj 6/20/97
6275 6270 6271 6273 3
6275 6270 6271 6274 3
6277 6278 6279 6280 3 33.20422 0.00000 -33.20422 0.00000 0.00000 0.00000 ; methylguanidinium ion
6277 6278 6279 6283 3 20.50160 0.00000 -20.50160 0.00000 0.00000 0.00000 ; imides
6278 6279 6280 6281 3
6278 6279 6280 6282 3
6283 6279 6280 6281 3
6283 6279 6280 6282 3
6285 6286 6287 6288 3 33.20422 0.00000 -33.20422 0.00000 0.00000 0.00000 ; methylguanidinium ion
6285 6286 6287 6292 3 20.50160 0.00000 -20.50160 0.00000 0.00000 0.00000 ; imides
6286 6287 6288 6289 3 25.47638 0.00000 -25.47638 0.00000 0.00000 0.00000 ; amides O-C(O)-N-C
6286 6287 6288 6290 3
6286 6287 6288 6291 3
6292 6287 6288 6289 3 20.50160 0.00000 -20.50160 0.00000 0.00000 0.00000 ; amides wlj 6/20/97
6292 6287 6288 6290 3
6292 6287 6288 6291 3
6294 6295 6296 6297 3 33.20422 0.00000 -33.20422 0.00000 0.00000 0.00000 ; methylguanidinium ion
6294 6295 6296 6300 3 20.50160 0.00000 -20.50160 0.00000 0.00000 0.00000 ; imides
6295 6296 6297 6298 3
6295 6296 6297 6299 3
6300 6296 6297 6298 3
6300 6296 6297 6299 3
6302 6303 6304 6305 3 33.20422 0.00000 -33.20422 0.00000 0.00000 0.00000 ; methylguanidinium ion
6302 6303 6304 6310 3 20.50160 0.00000 -20.50160 0.00000 0.00000 0.00000 ; imides
6303 6304 6305 6306 3 25.47638 0.00000 -25.47638 0.00000 0.00000 0.00000 ; amides O-C(O)-N-C
6303 6304 6305 6308 3
6303 6304 6305 6309 3
6304 6305 6306 6307 3 16.73600 4.18400 -20.92000 0.00000 0.00000 0.00000 ; carbamates
6308 6305 6306 6307 3
6309 6305 6306 6307 3
6310 6304 6305 6306 3 20.50160 0.00000 -20.50160 0.00000 0.00000 0.00000 ; amides wlj 6/20/97
6310 6304 6305 6308 3
6310 6304 6305 6309 3
6312 6313 6314 6315 3 33.20422 0.00000 -33.20422 0.00000 0.00000 0.00000 ; methylguanidinium ion
6312 6313 6314 6319 3 20.50160 0.00000 -20.50160 0.00000 0.00000 0.00000 ; imides
6313 6314 6315 6316 3 25.47638 0.00000 -25.47638 0.00000 0.00000 0.00000 ; amides O-C(O)-N-C
6313 6314 6315 6317 3
6313 6314 6315 6318 3
6319 6314 6315 6316 3 20.50160 0.00000 -20.50160 0.00000 0.00000 0.00000 ; amides wlj 6/20/97
6319 6314 6315 6317 3
6319 6314 6315 6318 3
6321 6322 6323 6324 3 33.20422 0.00000 -33.20422 0.00000 0.00000 0.00000 ; methylguanidinium ion
6321 6322 6323 6329 3 20.50160 0.00000 -20.50160 0.00000 0.00000 0.00000 ; imides
6322 6323 6324 6325 3 25.47638 0.00000 -25.47638 0.00000 0.00000 0.00000 ; amides O-C(O)-N-C
6322 6323 6324 6327 3
6322 6323 6324 6328 3
6323 6324 6325 6326 3 16.73600 4.18400 -20.92000 0.00000 0.00000 0.00000 ; carbamates
6327 6324 6325 6326 3
6328 6324 6325 6326 3
6329 6323 6324 6325 3 20.50160 0.00000 -20.50160 0.00000 0.00000 0.00000 ; amides wlj 6/20/97
6329 6323 6324 6327 3
6329 6323 6324 6328 3
6331 6332 6333 6334 3 33.20422 0.00000 -33.20422 0.00000 0.00000 0.00000 ; methylguanidinium ion
6331 6332 6333 6339 3 20.50160 0.00000 -20.50160 0.00000 0.00000 0.00000 ; imides
6332 6333 6334 6335 3 25.47638 0.00000 -25.47638 0.00000 0.00000 0.00000 ; amides O-C(O)-N-C
6332 6333 6334 6337 3
6332 6333 6334 6338 3
6333 6334 6335 6336 3 16.73600 4.18400 -20.92000 0.00000 0.00000 0.00000 ; carbamates
6337 6334 6335 6336 3
6338 6334 6335 6336 3
6339 6333 6334 6335 3 20.50160 0.00000 -20.50160 0.00000 0.00000 0.00000 ; amides wlj 6/20/97
6339 6333 6334 6337 3
6339 6333 6334 6338 3
6341 6342 6343 6344 3 33.20422 0.00000 -33.20422 0.00000 0.00000 0.00000 ; methylguanidinium ion
6341 6342 6343 6348 3 20.50160 0.00000 -20.50160 0.00000 0.00000 0.00000 ; imides
6342 6343 6344 6345 3 25.47638 0.00000 -25.47638 0.00000 0.00000 0.00000 ; amides O-C(O)-N-C
6342 6343 6344 6346 3
6342 6343 6344 6347 3
6348 6343 6344 6345 3 20.50160 0.00000 -20.50160 0.00000 0.00000 0.00000 ; amides wlj 6/20/97
6348 6343 6344 6346 3
6348 6343 6344 6347 3
6350 6351 6352 6353 3 33.20422 0.00000 -33.20422 0.00000 0.00000 0.00000 ; methylguanidinium ion
6350 6351 6352 6357 3 20.50160 0.00000 -20.50160 0.00000 0.00000 0.00000 ; imides
6351 6352 6353 6354 3 25.47638 0.00000 -25.47638 0.00000 0.00000 0.00000 ; amides O-C(O)-N-C
6351 6352 6353 6355 3
6351 6352 6353 6356 3
6357 6352 6353 6354 3 20.50160 0.00000 -20.50160 0.00000 0.00000 0.00000 ; amides wlj 6/20/97
6357 6352 6353 6355 3
6357 6352 6353 6356 3
6359 6360 6361 6362 3 33.20422 0.00000 -33.20422 0.00000 0.00000 0.00000 ; methylguanidinium ion
6359 6360 6361 6365 3 20.50160 0.00000 -20.50160 0.00000 0.00000 0.00000 ; imides
6360 6361 6362 6363 3
6360 6361 6362 6364 3
6365 6361 6362 6363 3
6365 6361 6362 6364 3
6367 6368 6369 6370 3 33.20422 0.00000 -33.20422 0.00000 0.00000 0.00000 ; methylguanidinium ion
6367 6368 6369 6373 3 20.50160 0.00000 -20.50160 0.00000 0.00000 0.00000 ; imides
6368 6369 6370 6371 3
6368 6369 6370 6372 3
6373 6369 6370 6371 3
6373 6369 6370 6372 3
6375 6376 6377 6378 3 33.20422 0.00000 -33.20422 0.00000 0.00000 0.00000 ; methylguanidinium ion
6375 6376 6377 6382 3 20.50160 0.00000 -20.50160 0.00000 0.00000 0.00000 ; imides
6376 6377 6378 6379 3 25.47638 0.00000 -25.47638 0.00000 0.00000 0.00000 ; amides O-C(O)-N-C
6376 6377 6378 6380 3
6376 6377 6378 6381 3
6382 6377 6378 6379 3 20.50160 0.00000 -20.50160 0.00000 0.00000 0.00000 ; amides wlj 6/20/97
6382 6377 6378 6380 3
6382 6377 6378 6381 3
6384 6385 6386 6387 3 33.20422 0.00000 -33.20422 0.00000 0.00000 0.00000 ; methylguanidinium ion
6384 6385 6386 6392 3 20.50160 0.00000 -20.50160 0.00000 0.00000 0.00000 ; imides
6385 6386 6387 6388 3 25.47638 0.00000 -25.47638 0.00000 0.00000 0.00000 ; amides O-C(O)-N-C
6385 6386 6387 6390 3
6385 6386 6387 6391 3
6386 6387 6388 6389 3 16.73600 4.18400 -20.92000 0.00000 0.00000 0.00000 ; carbamates
6390 6387 6388 6389 3
6391 6387 6388 6389 3
6392 6386 6387 6388 3 20.50160 0.00000 -20.50160 0.00000 0.00000 0.00000 ; amides wlj 6/20/97
6392 6386 6387 6390 3
6392 6386 6387 6391 3
6394 6395 6396 6397 3 33.20422 0.00000 -33.20422 0.00000 0.00000 0.00000 ; methylguanidinium ion
6394 6395 6396 6401 3 20.50160 0.00000 -20.50160 0.00000 0.00000 0.00000 ; imides
6395 6396 6397 6398 3 25.47638 0.00000 -25.47638 0.00000 0.00000 0.00000 ; amides O-C(O)-N-C
6395 6396 6397 6399 3
6395 6396 6397 6400 3
6401 6396 6397 6398 3 20.50160 0.00000 -20.50160 0.00000 0.00000 0.00000 ; amides wlj 6/20/97
6401 6396 6397 6399 3
6401 6396 6397 6400 3
6403 6404 6405 6406 3 33.20422 0.00000 -33.20422 0.00000 0.00000 0.00000 ; methylguanidinium ion
6403 6404 6405 6409 3 20.50160 0.00000 -20.50160 0.00000 0.00000 0.00000 ; imides
6404 6405 6406 6407 3
6404 6405 6406 6408 3
6409 6405 6406 6407 3
6409 6405 6406 6408 3
6411 6412 6413 6414 3 33.20422 0.00000 -33.20422 0.00000 0.00000 0.00000 ; methylguanidinium ion
6411 6412 6413 6417 3 20.50160 0.00000 -20.50160 0.00000 0.00000 0.00000 ; imides
6412 6413 6414 6415 3
6412 6413 6414 6416 3
6417 6413 6414 6415 3
6417 6413 6414 6416 3
6419 6420 6421 6422 3 33.20422 0.00000 -33.20422 0.00000 0.00000 0.00000 ; methylguanidinium ion
6419 6420 6421 6426 3 20.50160 0.00000 -20.50160 0.00000 0.00000 0.00000 ; imides
6420 6421 6422 6423 3 25.47638 0.00000 -25.47638 0.00000 0.00000 0.00000 ; amides O-C(O)-N-C
6420 6421 6422 6424 3
6420 6421 6422 6425 3
6426 6421 6422 6423 3 20.50160 0.00000 -20.50160 0.00000 0.00000 0.00000 ; amides wlj 6/20/97
6426 6421 6422 6424 3
6426 6421 6422 6425 3
6428 6429 6430 6431 3 33.20422 0.00000 -33.20422 0.00000 0.00000 0.00000 ; methylguanidinium ion
6428 6429 6430 6435 3 20.50160 0.00000 -20.50160 0.00000 0.00000 0.00000 ; imides
6429 6430 6431 6432 3 25.47638 0.00000 -25.47638 0.00000 0.00000 0.00000 ; amides O-C(O)-N-C
6429 6430 6431 6433 3
6429 6430 6431 6434 3
6435 6430 6431 6432 3 20.50160 0.00000 -20.50160 0.00000 0.00000 0.00000 ; amides wlj 6/20/97
6435 6430 6431 6433 3
6435 6430 6431 6434 3
6437 6438 6439 6440 3 33.20422 0.00000 -33.20422 0.00000 0.00000 0.00000 ; methylguanidinium ion
6437 6438 6439 6443 3 20.50160 0.00000 -20.50160 0.00000 0.00000 0.00000 ; imides
6438 6439 6440 6441 3
6438 6439 6440 6442 3
6443 6439 6440 6441 3
6443 6439 6440 6442 3
6445 6446 6447 6448 3 33.20422 0.00000 -33.20422 0.00000 0.00000 0.00000 ; methylguanidinium ion
6445 6446 6447 6451 3 20.50160 0.00000 -20.50160 0.00000 0.00000 0.00000 ; imides
6446 6447 6448 6449 3
6446 6447 6448 6450 3
6451 6447 6448 6449 3
6451 6447 6448 6450 3
6453 6454 6455 6456 3 33.20422 0.00000 -33.20422 0.00000 0.00000 0.00000 ; methylguanidinium ion
6453 6454 6455 6460 3 20.50160 0.00000 -20.50160 0.00000 0.00000 0.00000 ; imides
6454 6455 6456 6457 3 25.47638 0.00000 -25.47638 0.00000 0.00000 0.00000 ; amides O-C(O)-N-C
6454 6455 6456 6458 3
6454 6455 6456 6459 3
6460 6455 6456 6457 3 20.50160 0.00000 -20.50160 0.00000 0.00000 0.00000 ; amides wlj 6/20/97
6460 6455 6456 6458 3
6460 6455 6456 6459 3
6462 6463 6464 6465 3 33.20422 0.00000 -33.20422 0.00000 0.00000 0.00000 ; methylguanidinium ion
6462 6463 6464 6470 3 20.50160 0.00000 -20.50160 0.00000 0.00000 0.00000 ; imides
6463 6464 6465 6466 3 25.47638 0.00000 -25.47638 0.00000 0.00000 0.00000 ; amides O-C(O)-N-C
6463 6464 6465 6468 3
6463 6464 6465 6469 3
6464 6465 6466 6467 3 16.73600 4.18400 -20.92000 0.00000 0.00000 0.00000 ; carbamates
6468 6465 6466 6467 3
6469 6465 6466 6467 3
6470 6464 6465 6466 3 20.50160 0.00000 -20.50160 0.00000 0.00000 0.00000 ; amides wlj 6/20/97
6470 6464 6465 6468 3
6470 6464 6465 6469 3
6472 6473 6474 6475 3 33.20422 0.00000 -33.20422 0.00000 0.00000 0.00000 ; methylguanidinium ion
6472 6473 6474 6480 3 20.50160 0.00000 -20.50160 0.00000 0.00000 0.00000 ; imides
6473 6474 6475 6476 3 25.47638 0.00000 -25.47638 0.00000 0.00000 0.00000 ; amides O-C(O)-N-C
6473 6474 6475 6478 3
6473 6474 6475 6479 3
6474 6475 6476 6477 3 16.73600 4.18400 -20.92000 0.00000 0.00000 0.00000 ; carbamates
6478 6475 6476 6477 3
6479 6475 6476 6477 3
6480 6474 6475 6476 3 20.50160 0.00000 -20.50160 0.00000 0.00000 0.00000 ; amides wlj 6/20/97
6480 6474 6475 6478 3
6480 6474 6475 6479 3
6482 6483 6484 6485 3 33.20422 0.00000 -33.20422 0.00000 0.00000 0.00000 ; methylguanidinium ion
6482 6483 6484 6489 3 20.50160 0.00000 -20.50160 0.00000 0.00000 0.00000 ; imides
6483 6484 6485 6486 3 25.47638 0.00000 -25.47638 0.00000 0.00000 0.00000 ; amides O-C(O)-N-C
6483 6484 6485 6487 3
6483 6484 6485 6488 3
6489 6484 6485 6486 3 20.50160 0.00000 -20.50160 0.00000 0.00000 0.00000 ; amides wlj 6/20/97
6489 6484 6485 6487 3
6489 6484 6485 6488 3
6491 6492 6493 6494 3 33.20422 0.00000 -33.20422 0.00000 0.00000 0.00000 ; methylguanidinium ion
6491 6492 6493 6497 3 20.50160 0.00000 -20.50160 0.00000 0.00000 0.00000 ; imides
6492 6493 6494 6495 3
6492 6493 6494 6496 3
6497 6493 6494 6495 3
6497 6493 6494 6496 3
6499 6500 6501 6502 3 33.20422 0.00000 -33.20422 0.00000 0.00000 0.00000 ; methylguanidinium ion
6499 6500 6501 6506 3 20.50160 0.00000 -20.50160 0.00000 0.00000 0.00000 ; imides
6500 6501 6502 6503 3 25.47638 0.00000 -25.47638 0.00000 0.00000 0.00000 ; amides O-C(O)-N-C
6500 6501 6502 6504 3
6500 6501 6502 6505 3
6506 6501 6502 6503 3 20.50160 0.00000 -20.50160 0.00000 0.00000 0.00000 ; amides wlj 6/20/97
6506 6501 6502 6504 3
6506 6501 6502 6505 3
6508 6509 6510 6511 3 33.20422 0.00000 -33.20422 0.00000 0.00000 0.00000 ; methylguanidinium ion
6508 6509 6510 6515 3 20.50160 0.00000 -20.50160 0.00000 0.00000 0.00000 ; imides
6509 6510 6511 6512 3 25.47638 0.00000 -25.47638 0.00000 0.00000 0.00000 ; amides O-C(O)-N-C
6509 6510 6511 6513 3
6509 6510 6511 6514 3
6515 6510 6511 6512 3 20.50160 0.00000 -20.50160 0.00000 0.00000 0.00000 ; amides wlj 6/20/97
6515 6510 6511 6513 3
6515 6510 6511 6514 3
6517 6518 6519 6520 3 33.20422 0.00000 -33.20422 0.00000 0.00000 0.00000 ; methylguanidinium ion
6517 6518 6519 6523 3 20.50160 0.00000 -20.50160 0.00000 0.00000 0.00000 ; imides
6518 6519 6520 6521 3
6518 6519 6520 6522 3
6523 6519 6520 6521 3
6523 6519 6520 6522 3
6525 6526 6527 6528 3 33.20422 0.00000 -33.20422 0.00000 0.00000 0.00000 ; methylguanidinium ion
6525 6526 6527 6531 3 20.50160 0.00000 -20.50160 0.00000 0.00000 0.00000 ; imides
6526 6527 6528 6529 3
6526 6527 6528 6530 3
6531 6527 6528 6529 3
6531 6527 6528 6530 3
6533 6534 6535 6536 3 33.20422 0.00000 -33.20422 0.00000 0.00000 0.00000 ; methylguanidinium ion
6533 6534 6535 6540 3 20.50160 0.00000 -20.50160 0.00000 0.00000 0.00000 ; imides
6534 6535 6536 6537 3 25.47638 0.00000 -25.47638 0.00000 0.00000 0.00000 ; amides O-C(O)-N-C
6534 6535 6536 6538 3
6534 6535 6536 6539 3
6540 6535 6536 6537 3 20.50160 0.00000 -20.50160 0.00000 0.00000 0.00000 ; amides wlj 6/20/97
6540 6535 6536 6538 3
6540 6535 6536 6539 3
6542 6543 6544 6545 3 33.20422 0.00000 -33.20422 0.00000 0.00000 0.00000 ; methylguanidinium ion
6542 6543 6544 6548 3 20.50160 0.00000 -20.50160 0.00000 0.00000 0.00000 ; imides
6543 6544 6545 6546 3
6543 6544 6545 6547 3
6548 6544 6545 6546 3
6548 6544 6545 6547 3
6550 6551 6552 6553 3 33.20422 0.00000 -33.20422 0.00000 0.00000 0.00000 ; methylguanidinium ion
6550 6551 6552 6556 3 20.50160 0.00000 -20.50160 0.00000 0.00000 0.00000 ; imides
6551 6552 6553 6554 3
6551 6552 6553 6555 3
6556 6552 6553 6554 3
6556 6552 6553 6555 3
6558 6559 6560 6561 3 33.20422 0.00000 -33.20422 0.00000 0.00000 0.00000 ; methylguanidinium ion
6558 6559 6560 6565 3 20.50160 0.00000 -20.50160 0.00000 0.00000 0.00000 ; imides
6559 6560 6561 6562 3 25.47638 0.00000 -25.47638 0.00000 0.00000 0.00000 ; amides O-C(O)-N-C
6559 6560 6561 6563 3
6559 6560 6561 6564 3
6565 6560 6561 6562 3 20.50160 0.00000 -20.50160 0.00000 0.00000 0.00000 ; amides wlj 6/20/97
6565 6560 6561 6563 3
6565 6560 6561 6564 3
6567 6568 6569 6570 3 33.20422 0.00000 -33.20422 0.00000 0.00000 0.00000 ; methylguanidinium ion
6567 6568 6569 6574 3 20.50160 0.00000 -20.50160 0.00000 0.00000 0.00000 ; imides
6568 6569 6570 6571 3 25.47638 0.00000 -25.47638 0.00000 0.00000 0.00000 ; amides O-C(O)-N-C
6568 6569 6570 6572 3
6568 6569 6570 6573 3
6574 6569 6570 6571 3 20.50160 0.00000 -20.50160 0.00000 0.00000 0.00000 ; amides wlj 6/20/97
6574 6569 6570 6572 3
6574 6569 6570 6573 3
6576 6577 6578 6579 3 33.20422 0.00000 -33.20422 0.00000 0.00000 0.00000 ; methylguanidinium ion
6576 6577 6578 6582 3 20.50160 0.00000 -20.50160 0.00000 0.00000 0.00000 ; imides
6577 6578 6579 6580 3
6577 6578 6579 6581 3
6582 6578 6579 6580 3
6582 6578 6579 6581 3
6584 6585 6586 6587 3 33.20422 0.00000 -33.20422 0.00000 0.00000 0.00000 ; methylguanidinium ion
6584 6585 6586 6590 3 20.50160 0.00000 -20.50160 0.00000 0.00000 0.00000 ; imides
6585 6586 6587 6588 3
6585 6586 6587 6589 3
6590 6586 6587 6588 3
6590 6586 6587 6589 3
6592 6593 6594 6595 3 33.20422 0.00000 -33.20422 0.00000 0.00000 0.00000 ; methylguanidinium ion
6592 6593 6594 6599 3 20.50160 0.00000 -20.50160 0.00000 0.00000 0.00000 ; imides
6593 6594 6595 6596 3 25.47638 0.00000 -25.47638 0.00000 0.00000 0.00000 ; amides O-C(O)-N-C
6593 6594 6595 6597 3
6593 6594 6595 6598 3
6599 6594 6595 6596 3 20.50160 0.00000 -20.50160 0.00000 0.00000 0.00000 ; amides wlj 6/20/97
6599 6594 6595 6597 3
6599 6594 6595 6598 3
6601 6602 6603 6604 3 33.20422 0.00000 -33.20422 0.00000 0.00000 0.00000 ; methylguanidinium ion
6601 6602 6603 6607 3 20.50160 0.00000 -20.50160 0.00000 0.00000 0.00000 ; imides
6602 6603 6604 6605 3
6602 6603 6604 6606 3
6607 6603 6604 6605 3
6607 6603 6604 6606 3
6609 6610 6611 6612 3 33.20422 0.00000 -33.20422 0.00000 0.00000 0.00000 ; methylguanidinium ion
6609 6610 6611 6615 3 20.50160 0.00000 -20.50160 0.00000 0.00000 0.00000 ; imides
6610 6611 6612 6613 3
6610 6611 6612 6614 3
6615 6611 6612 6613 3
6615 6611 6612 6614 3
6617 6618 6619 6620 3 33.20422 0.00000 -33.20422 0.00000 0.00000 0.00000 ; methylguanidinium ion
6617 6618 6619 6623 3 20.50160 0.00000 -20.50160 0.00000 0.00000 0.00000 ; imides
6618 6619 6620 6621 3
6618 6619 6620 6622 3
6623 6619 6620 6621 3
6623 6619 6620 6622 3
6625 6626 6627 6628 3 33.20422 0.00000 -33.20422 0.00000 0.00000 0.00000 ; methylguanidinium ion
6625 6626 6627 6632 3 20.50160 0.00000 -20.50160 0.00000 0.00000 0.00000 ; imides
6626 6627 6628 6629 3 25.47638 0.00000 -25.47638 0.00000 0.00000 0.00000 ; amides O-C(O)-N-C
6626 6627 6628 6630 3
6626 6627 6628 6631 3
6632 6627 6628 6629 3 20.50160 0.00000 -20.50160 0.00000 0.00000 0.00000 ; amides wlj 6/20/97
6632 6627 6628 6630 3
6632 6627 6628 6631 3
6634 6635 6636 6637 3 33.20422 0.00000 -33.20422 0.00000 0.00000 0.00000 ; methylguanidinium ion
6634 6635 6636 6640 3 20.50160 0.00000 -20.50160 0.00000 0.00000 0.00000 ; imides
6635 6636 6637 6638 3
6635 6636 6637 6639 3
6640 6636 6637 6638 3
6640 6636 6637 6639 3
6642 6643 6644 6645 3 33.20422 0.00000 -33.20422 0.00000 0.00000 0.00000 ; methylguanidinium ion
6642 6643 6644 6648 3 20.50160 0.00000 -20.50160 0.00000 0.00000 0.00000 ; imides
6643 6644 6645 6646 3
6643 6644 6645 6647 3
6648 6644 6645 6646 3
6648 6644 6645 6647 3
6650 6651 6652 6653 3 33.20422 0.00000 -33.20422 0.00000 0.00000 0.00000 ; methylguanidinium ion
6650 6651 6652 6656 3 20.50160 0.00000 -20.50160 0.00000 0.00000 0.00000 ; imides
6651 6652 6653 6654 3
6651 6652 6653 6655 3
6656 6652 6653 6654 3
6656 6652 6653 6655 3
6658 6659 6660 6661 3 33.20422 0.00000 -33.20422 0.00000 0.00000 0.00000 ; methylguanidinium ion
6658 6659 6660 6664 3 20.50160 0.00000 -20.50160 0.00000 0.00000 0.00000 ; imides
6659 6660 6661 6662 3
6659 6660 6661 6663 3
6664 6660 6661 6662 3
6664 6660 6661 6663 3
6666 6667 6668 6669 3 33.20422 0.00000 -33.20422 0.00000 0.00000 0.00000 ; methylguanidinium ion
6666 6667 6668 6672 3 20.50160 0.00000 -20.50160 0.00000 0.00000 0.00000 ; imides
6667 6668 6669 6670 3
6667 6668 6669 6671 3
6672 6668 6669 6670 3
6672 6668 6669 6671 3
6674 6675 6676 6677 3 33.20422 0.00000 -33.20422 0.00000 0.00000 0.00000 ; methylguanidinium ion
6674 6675 6676 6680 3 20.50160 0.00000 -20.50160 0.00000 0.00000 0.00000 ; imides
6675 6676 6677 6678 3
6675 6676 6677 6679 3
6680 6676 6677 6678 3
6680 6676 6677 6679 3
6682 6683 6684 6685 3 33.20422 0.00000 -33.20422 0.00000 0.00000 0.00000 ; methylguanidinium ion
6682 6683 6684 6689 3 20.50160 0.00000 -20.50160 0.00000 0.00000 0.00000 ; imides
6683 6684 6685 6686 3 25.47638 0.00000 -25.47638 0.00000 0.00000 0.00000 ; amides O-C(O)-N-C
6683 6684 6685 6687 3
6683 6684 6685 6688 3
6689 6684 6685 6686 3 20.50160 0.00000 -20.50160 0.00000 0.00000 0.00000 ; amides wlj 6/20/97
6689 6684 6685 6687 3
6689 6684 6685 6688 3
6691 6692 6693 6694 3 33.20422 0.00000 -33.20422 0.00000 0.00000 0.00000 ; methylguanidinium ion
6691 6692 6693 6698 3 20.50160 0.00000 -20.50160 0.00000 0.00000 0.00000 ; imides
6692 6693 6694 6695 3 25.47638 0.00000 -25.47638 0.00000 0.00000 0.00000 ; amides O-C(O)-N-C
6692 6693 6694 6696 3
6692 6693 6694 6697 3
6698 6693 6694 6695 3 20.50160 0.00000 -20.50160 0.00000 0.00000 0.00000 ; amides wlj 6/20/97
6698 6693 6694 6696 3
6698 6693 6694 6697 3
6700 6701 6702 6703 3 33.20422 0.00000 -33.20422 0.00000 0.00000 0.00000 ; methylguanidinium ion
6700 6701 6702 6707 3 20.50160 0.00000 -20.50160 0.00000 0.00000 0.00000 ; imides
6701 6702 6703 6704 3 25.47638 0.00000 -25.47638 0.00000 0.00000 0.00000 ; amides O-C(O)-N-C
6701 6702 6703 6705 3
6701 6702 6703 6706 3
6707 6702 6703 6704 3 20.50160 0.00000 -20.50160 0.00000 0.00000 0.00000 ; amides wlj 6/20/97
6707 6702 6703 6705 3
6707 6702 6703 6706 3
6709 6710 6711 6712 3 33.20422 0.00000 -33.20422 0.00000 0.00000 0.00000 ; methylguanidinium ion
6709 6710 6711 6715 3 20.50160 0.00000 -20.50160 0.00000 0.00000 0.00000 ; imides
6710 6711 6712 6713 3
6710 6711 6712 6714 3
6715 6711 6712 6713 3
6715 6711 6712 6714 3
6717 6718 6719 6720 3 33.20422 0.00000 -33.20422 0.00000 0.00000 0.00000 ; methylguanidinium ion
6717 6718 6719 6724 3 20.50160 0.00000 -20.50160 0.00000 0.00000 0.00000 ; imides
6718 6719 6720 6721 3 25.47638 0.00000 -25.47638 0.00000 0.00000 0.00000 ; amides O-C(O)-N-C
6718 6719 6720 6722 3
6718 6719 6720 6723 3
6724 6719 6720 6721 3 20.50160 0.00000 -20.50160 0.00000 0.00000 0.00000 ; amides wlj 6/20/97
6724 6719 6720 6722 3
6724 6719 6720 6723 3
6726 6727 6728 6729 3 33.20422 0.00000 -33.20422 0.00000 0.00000 0.00000 ; methylguanidinium ion
6726 6727 6728 6733 3 20.50160 0.00000 -20.50160 0.00000 0.00000 0.00000 ; imides
6727 6728 6729 6730 3 25.47638 0.00000 -25.47638 0.00000 0.00000 0.00000 ; amides O-C(O)-N-C
6727 6728 6729 6731 3
6727 6728 6729 6732 3
6733 6728 6729 6730 3 20.50160 0.00000 -20.50160 0.00000 0.00000 0.00000 ; amides wlj 6/20/97
6733 6728 6729 6731 3
6733 6728 6729 6732 3
6735 6736 6737 6738 3 33.20422 0.00000 -33.20422 0.00000 0.00000 0.00000 ; methylguanidinium ion
6735 6736 6737 6741 3 20.50160 0.00000 -20.50160 0.00000 0.00000 0.00000 ; imides
6736 6737 6738 6739 3
6736 6737 6738 6740 3
6741 6737 6738 6739 3
6741 6737 6738 6740 3
6743 6744 6745 6746 3 33.20422 0.00000 -33.20422 0.00000 0.00000 0.00000 ; methylguanidinium ion
6743 6744 6745 6749 3 20.50160 0.00000 -20.50160 0.00000 0.00000 0.00000 ; imides
6744 6745 6746 6747 3
6744 6745 6746 6748 3
6749 6745 6746 6747 3
6749 6745 6746 6748 3
6751 6752 6753 6754 3 33.20422 0.00000 -33.20422 0.00000 0.00000 0.00000 ; methylguanidinium ion
6751 6752 6753 6758 3 20.50160 0.00000 -20.50160 0.00000 0.00000 0.00000 ; imides
6752 6753 6754 6755 3 25.47638 0.00000 -25.47638 0.00000 0.00000 0.00000 ; amides O-C(O)-N-C
6752 6753 6754 6756 3
6752 6753 6754 6757 3
6758 6753 6754 6755 3 20.50160 0.00000 -20.50160 0.00000 0.00000 0.00000 ; amides wlj 6/20/97
6758 6753 6754 6756 3
6758 6753 6754 6757 3
6760 6761 6762 6763 3 33.20422 0.00000 -33.20422 0.00000 0.00000 0.00000 ; methylguanidinium ion
6760 6761 6762 6767 3 20.50160 0.00000 -20.50160 0.00000 0.00000 0.00000 ; imides
6761 6762 6763 6764 3 25.47638 0.00000 -25.47638 0.00000 0.00000 0.00000 ; amides O-C(O)-N-C
6761 6762 6763 6765 3
6761 6762 6763 6766 3
6767 6762 6763 6764 3 20.50160 0.00000 -20.50160 0.00000 0.00000 0.00000 ; amides wlj 6/20/97
6767 6762 6763 6765 3
6767 6762 6763 6766 3
6769 6770 6771 6772 3 33.20422 0.00000 -33.20422 0.00000 0.00000 0.00000 ; methylguanidinium ion
6769 6770 6771 6776 3 20.50160 0.00000 -20.50160 0.00000 0.00000 0.00000 ; imides
6770 6771 6772 6773 3 25.47638 0.00000 -25.47638 0.00000 0.00000 0.00000 ; amides O-C(O)-N-C
6770 6771 6772 6774 3
6770 6771 6772 6775 3
6776 6771 6772 6773 3 20.50160 0.00000 -20.50160 0.00000 0.00000 0.00000 ; amides wlj 6/20/97
6776 6771 6772 6774 3
6776 6771 6772 6775 3
6778 6779 6780 6781 3 33.20422 0.00000 -33.20422 0.00000 0.00000 0.00000 ; methylguanidinium ion
6778 6779 6780 6784 3 20.50160 0.00000 -20.50160 0.00000 0.00000 0.00000 ; imides
6779 6780 6781 6782 3
6779 6780 6781 6783 3
6784 6780 6781 6782 3
6784 6780 6781 6783 3
6786 6787 6788 6789 3 33.20422 0.00000 -33.20422 0.00000 0.00000 0.00000 ; methylguanidinium ion
6786 6787 6788 6792 3 20.50160 0.00000 -20.50160 0.00000 0.00000 0.00000 ; imides
6787 6788 6789 6790 3
6787 6788 6789 6791 3
6792 6788 6789 6790 3
6792 6788 6789 6791 3
6794 6795 6796 6797 3 33.20422 0.00000 -33.20422 0.00000 0.00000 0.00000 ; methylguanidinium ion
6794 6795 6796 6801 3 20.50160 0.00000 -20.50160 0.00000 0.00000 0.00000 ; imides
6795 6796 6797 6798 3 25.47638 0.00000 -25.47638 0.00000 0.00000 0.00000 ; amides O-C(O)-N-C
6795 6796 6797 6799 3
6795 6796 6797 6800 3
6801 6796 6797 6798 3 20.50160 0.00000 -20.50160 0.00000 0.00000 0.00000 ; amides wlj 6/20/97
6801 6796 6797 6799 3
6801 6796 6797 6800 3
6803 6804 6805 6806 3 33.20422 0.00000 -33.20422 0.00000 0.00000 0.00000 ; methylguanidinium ion
6803 6804 6805 6810 3 20.50160 0.00000 -20.50160 0.00000 0.00000 0.00000 ; imides
6804 6805 6806 6807 3 25.47638 0.00000 -25.47638 0.00000 0.00000 0.00000 ; amides O-C(O)-N-C
6804 6805 6806 6808 3
6804 6805 6806 6809 3
6810 6805 6806 6807 3 20.50160 0.00000 -20.50160 0.00000 0.00000 0.00000 ; amides wlj 6/20/97
6810 6805 6806 6808 3
6810 6805 6806 6809 3
6812 6813 6814 6815 3 33.20422 0.00000 -33.20422 0.00000 0.00000 0.00000 ; methylguanidinium ion
6812 6813 6814 6818 3 20.50160 0.00000 -20.50160 0.00000 0.00000 0.00000 ; imides
6813 6814 6815 6816 3
6813 6814 6815 6817 3
6818 6814 6815 6816 3
6818 6814 6815 6817 3
6820 6821 6822 6823 3 33.20422 0.00000 -33.20422 0.00000 0.00000 0.00000 ; methylguanidinium ion
6820 6821 6822 6827 3 20.50160 0.00000 -20.50160 0.00000 0.00000 0.00000 ; imides
6821 6822 6823 6824 3 25.47638 0.00000 -25.47638 0.00000 0.00000 0.00000 ; amides O-C(O)-N-C
6821 6822 6823 6825 3
6821 6822 6823 6826 3
6827 6822 6823 6824 3 20.50160 0.00000 -20.50160 0.00000 0.00000 0.00000 ; amides wlj 6/20/97
6827 6822 6823 6825 3
6827 6822 6823 6826 3
6829 6830 6831 6832 3 33.20422 0.00000 -33.20422 0.00000 0.00000 0.00000 ; methylguanidinium ion
6829 6830 6831 6837 3 20.50160 0.00000 -20.50160 0.00000 0.00000 0.00000 ; imides
6830 6831 6832 6833 3 25.47638 0.00000 -25.47638 0.00000 0.00000 0.00000 ; amides O-C(O)-N-C
6830 6831 6832 6835 3
6830 6831 6832 6836 3
6831 6832 6833 6834 3 16.73600 4.18400 -20.92000 0.00000 0.00000 0.00000 ; carbamates
6835 6832 6833 6834 3
6836 6832 6833 6834 3
6837 6831 6832 6833 3 20.50160 0.00000 -20.50160 0.00000 0.00000 0.00000 ; amides wlj 6/20/97
6837 6831 6832 6835 3
6837 6831 6832 6836 3
6839 6840 6841 6842 3 33.20422 0.00000 -33.20422 0.00000 0.00000 0.00000 ; methylguanidinium ion
6839 6840 6841 6845 3 20.50160 0.00000 -20.50160 0.00000 0.00000 0.00000 ; imides
6840 6841 6842 6843 3
6840 6841 6842 6844 3
6845 6841 6842 6843 3
6845 6841 6842 6844 3
6847 6848 6849 6850 3 33.20422 0.00000 -33.20422 0.00000 0.00000 0.00000 ; methylguanidinium ion
6847 6848 6849 6853 3 20.50160 0.00000 -20.50160 0.00000 0.00000 0.00000 ; imides
6848 6849 6850 6851 3
6848 6849 6850 6852 3
6853 6849 6850 6851 3
6853 6849 6850 6852 3
6855 6856 6857 6858 3 33.20422 0.00000 -33.20422 0.00000 0.00000 0.00000 ; methylguanidinium ion
6855 6856 6857 6861 3 20.50160 0.00000 -20.50160 0.00000 0.00000 0.00000 ; imides
6856 6857 6858 6859 3
6856 6857 6858 6860 3
6861 6857 6858 6859 3
6861 6857 6858 6860 3
6863 6864 6865 6866 3 33.20422 0.00000 -33.20422 0.00000 0.00000 0.00000 ; methylguanidinium ion
6863 6864 6865 6869 3 20.50160 0.00000 -20.50160 0.00000 0.00000 0.00000 ; imides
6864 6865 6866 6867 3
6864 6865 6866 6868 3
6869 6865 6866 6867 3
6869 6865 6866 6868 3
6871 6872 6873 6874 3 33.20422 0.00000 -33.20422 0.00000 0.00000 0.00000 ; methylguanidinium ion
6871 6872 6873 6878 3 20.50160 0.00000 -20.50160 0.00000 0.00000 0.00000 ; imides
6872 6873 6874 6875 3 25.47638 0.00000 -25.47638 0.00000 0.00000 0.00000 ; amides O-C(O)-N-C
6872 6873 6874 6876 3
6872 6873 6874 6877 3
6878 6873 6874 6875 3 20.50160 0.00000 -20.50160 0.00000 0.00000 0.00000 ; amides wlj 6/20/97
6878 6873 6874 6876 3
6878 6873 6874 6877 3
6880 6881 6882 6883 3 33.20422 0.00000 -33.20422 0.00000 0.00000 0.00000 ; methylguanidinium ion
6880 6881 6882 6887 3 20.50160 0.00000 -20.50160 0.00000 0.00000 0.00000 ; imides
6881 6882 6883 6884 3 25.47638 0.00000 -25.47638 0.00000 0.00000 0.00000 ; amides O-C(O)-N-C
6881 6882 6883 6885 3
6881 6882 6883 6886 3
6887 6882 6883 6884 3 20.50160 0.00000 -20.50160 0.00000 0.00000 0.00000 ; amides wlj 6/20/97
6887 6882 6883 6885 3
6887 6882 6883 6886 3
6889 6890 6891 6892 3 33.20422 0.00000 -33.20422 0.00000 0.00000 0.00000 ; methylguanidinium ion
6889 6890 6891 6896 3 20.50160 0.00000 -20.50160 0.00000 0.00000 0.00000 ; imides
6890 6891 6892 6893 3 25.47638 0.00000 -25.47638 0.00000 0.00000 0.00000 ; amides O-C(O)-N-C
6890 6891 6892 6894 3
6890 6891 6892 6895 3
6896 6891 6892 6893 3 20.50160 0.00000 -20.50160 0.00000 0.00000 0.00000 ; amides wlj 6/20/97
6896 6891 6892 6894 3
6896 6891 6892 6895 3
6898 6899 6900 6901 3 33.20422 0.00000 -33.20422 0.00000 0.00000 0.00000 ; methylguanidinium ion
6898 6899 6900 6904 3 20.50160 0.00000 -20.50160 0.00000 0.00000 0.00000 ; imides
6899 6900 6901 6902 3
6899 6900 6901 6903 3
6904 6900 6901 6902 3
6904 6900 6901 6903 3
6906 6907 6908 6909 3 33.20422 0.00000 -33.20422 0.00000 0.00000 0.00000 ; methylguanidinium ion
6906 6907 6908 6912 3 20.50160 0.00000 -20.50160 0.00000 0.00000 0.00000 ; imides
6907 6908 6909 6910 3
6907 6908 6909 6911 3
6912 6908 6909 6910 3
6912 6908 6909 6911 3
6914 6915 6916 6917 3 33.20422 0.00000 -33.20422 0.00000 0.00000 0.00000 ; methylguanidinium ion
6914 6915 6916 6920 3 20.50160 0.00000 -20.50160 0.00000 0.00000 0.00000 ; imides
6915 6916 6917 6918 3
6915 6916 6917 6919 3
6920 6916 6917 6918 3
6920 6916 6917 6919 3
6922 6923 6924 6925 3 33.20422 0.00000 -33.20422 0.00000 0.00000 0.00000 ; methylguanidinium ion
6922 6923 6924 6929 3 20.50160 0.00000 -20.50160 0.00000 0.00000 0.00000 ; imides
6923 6924 6925 6926 3 25.47638 0.00000 -25.47638 0.00000 0.00000 0.00000 ; amides O-C(O)-N-C
6923 6924 6925 6927 3
6923 6924 6925 6928 3
6929 6924 6925 6926 3 20.50160 0.00000 -20.50160 0.00000 0.00000 0.00000 ; amides wlj 6/20/97
6929 6924 6925 6927 3
6929 6924 6925 6928 3
6931 6932 6933 6934 3 33.20422 0.00000 -33.20422 0.00000 0.00000 0.00000 ; methylguanidinium ion
6931 6932 6933 6937 3 20.50160 0.00000 -20.50160 0.00000 0.00000 0.00000 ; imides
6932 6933 6934 6935 3
6932 6933 6934 6936 3
6937 6933 6934 6935 3
6937 6933 6934 6936 3
6939 6940 6941 6942 3 33.20422 0.00000 -33.20422 0.00000 0.00000 0.00000 ; methylguanidinium ion
6939 6940 6941 6946 3 20.50160 0.00000 -20.50160 0.00000 0.00000 0.00000 ; imides
6940 6941 6942 6943 3 25.47638 0.00000 -25.47638 0.00000 0.00000 0.00000 ; amides O-C(O)-N-C
6940 6941 6942 6944 3
6940 6941 6942 6945 3
6946 6941 6942 6943 3 20.50160 0.00000 -20.50160 0.00000 0.00000 0.00000 ; amides wlj 6/20/97
6946 6941 6942 6944 3
6946 6941 6942 6945 3
6948 6949 6950 6951 3 33.20422 0.00000 -33.20422 0.00000 0.00000 0.00000 ; methylguanidinium ion
6948 6949 6950 6955 3 20.50160 0.00000 -20.50160 0.00000 0.00000 0.00000 ; imides
6949 6950 6951 6952 3 25.47638 0.00000 -25.47638 0.00000 0.00000 0.00000 ; amides O-C(O)-N-C
6949 6950 6951 6953 3
6949 6950 6951 6954 3
6955 6950 6951 6952 3 20.50160 0.00000 -20.50160 0.00000 0.00000 0.00000 ; amides wlj 6/20/97
6955 6950 6951 6953 3
6955 6950 6951 6954 3
6957 6958 6959 6960 3 33.20422 0.00000 -33.20422 0.00000 0.00000 0.00000 ; methylguanidinium ion
6957 6958 6959 6963 3 20.50160 0.00000 -20.50160 0.00000 0.00000 0.00000 ; imides
6958 6959 6960 6961 3
6958 6959 6960 6962 3
6963 6959 6960 6961 3
6963 6959 6960 6962 3
6965 6966 6967 6968 3 33.20422 0.00000 -33.20422 0.00000 0.00000 0.00000 ; methylguanidinium ion
6965 6966 6967 6971 3 20.50160 0.00000 -20.50160 0.00000 0.00000 0.00000 ; imides
6966 6967 6968 6969 3
6966 6967 6968 6970 3
6971 6967 6968 6969 3
6971 6967 6968 6970 3
6973 6974 6975 6976 3 33.20422 0.00000 -33.20422 0.00000 0.00000 0.00000 ; methylguanidinium ion
6973 6974 6975 6980 3 20.50160 0.00000 -20.50160 0.00000 0.00000 0.00000 ; imides
6974 6975 6976 6977 3 25.47638 0.00000 -25.47638 0.00000 0.00000 0.00000 ; amides O-C(O)-N-C
6974 6975 6976 6978 3
6974 6975 6976 6979 3
6980 6975 6976 6977 3 20.50160 0.00000 -20.50160 0.00000 0.00000 0.00000 ; amides wlj 6/20/97
6980 6975 6976 6978 3
6980 6975 6976 6979 3
6982 6983 6984 6985 3 33.20422 0.00000 -33.20422 0.00000 0.00000 0.00000 ; methylguanidinium ion
6982 6983 6984 6988 3 20.50160 0.00000 -20.50160 0.00000 0.00000 0.00000 ; imides
6983 6984 6985 6986 3
6983 6984 6985 6987 3
6988 6984 6985 6986 3
6988 6984 6985 6987 3
6990 6991 6992 6993 3 33.20422 0.00000 -33.20422 0.00000 0.00000 0.00000 ; methylguanidinium ion
6990 6991 6992 6996 3 20.50160 0.00000 -20.50160 0.00000 0.00000 0.00000 ; imides
6991 6992 6993 6994 3
6991 6992 6993 6995 3
6996 6992 6993 6994 3
6996 6992 6993 6995 3
6998 6999 7000 7001 3 33.20422 0.00000 -33.20422 0.00000 0.00000 0.00000 ; methylguanidinium ion
6998 6999 7000 7005 3 20.50160 0.00000 -20.50160 0.00000 0.00000 0.00000 ; imides
6999 7000 7001 7002 3 25.47638 0.00000 -25.47638 0.00000 0.00000 0.00000 ; amides O-C(O)-N-C
6999 7000 7001 7003 3
6999 7000 7001 7004 3
7005 7000 7001 7002 3 20.50160 0.00000 -20.50160 0.00000 0.00000 0.00000 ; amides wlj 6/20/97
7005 7000 7001 7003 3
7005 7000 7001 7004 3
7007 7008 7009 7010 3 33.20422 0.00000 -33.20422 0.00000 0.00000 0.00000 ; methylguanidinium ion
7007 7008 7009 7015 3 20.50160 0.00000 -20.50160 0.00000 0.00000 0.00000 ; imides
7008 7009 7010 7011 3 25.47638 0.00000 -25.47638 0.00000 0.00000 0.00000 ; amides O-C(O)-N-C
7008 7009 7010 7013 3
7008 7009 7010 7014 3
7009 7010 7011 7012 3 16.73600 4.18400 -20.92000 0.00000 0.00000 0.00000 ; carbamates
7013 7010 7011 7012 3
7014 7010 7011 7012 3
7015 7009 7010 7011 3 20.50160 0.00000 -20.50160 0.00000 0.00000 0.00000 ; amides wlj 6/20/97
7015 7009 7010 7013 3
7015 7009 7010 7014 3
7017 7018 7019 7020 3 33.20422 0.00000 -33.20422 0.00000 0.00000 0.00000 ; methylguanidinium ion
7017 7018 7019 7024 3 20.50160 0.00000 -20.50160 0.00000 0.00000 0.00000 ; imides
7018 7019 7020 7021 3 25.47638 0.00000 -25.47638 0.00000 0.00000 0.00000 ; amides O-C(O)-N-C
7018 7019 7020 7022 3
7018 7019 7020 7023 3
7024 7019 7020 7021 3 20.50160 0.00000 -20.50160 0.00000 0.00000 0.00000 ; amides wlj 6/20/97
7024 7019 7020 7022 3
7024 7019 7020 7023 3
7026 7027 7028 7029 3 33.20422 0.00000 -33.20422 0.00000 0.00000 0.00000 ; methylguanidinium ion
7026 7027 7028 7033 3 20.50160 0.00000 -20.50160 0.00000 0.00000 0.00000 ; imides
7027 7028 7029 7030 3 25.47638 0.00000 -25.47638 0.00000 0.00000 0.00000 ; amides O-C(O)-N-C
7027 7028 7029 7031 3
7027 7028 7029 7032 3
7033 7028 7029 7030 3 20.50160 0.00000 -20.50160 0.00000 0.00000 0.00000 ; amides wlj 6/20/97
7033 7028 7029 7031 3
7033 7028 7029 7032 3
7035 7036 7037 7038 3 33.20422 0.00000 -33.20422 0.00000 0.00000 0.00000 ; methylguanidinium ion
7035 7036 7037 7042 3 20.50160 0.00000 -20.50160 0.00000 0.00000 0.00000 ; imides
7036 7037 7038 7039 3 25.47638 0.00000 -25.47638 0.00000 0.00000 0.00000 ; amides O-C(O)-N-C
7036 7037 7038 7040 3
7036 7037 7038 7041 3
7042 7037 7038 7039 3 20.50160 0.00000 -20.50160 0.00000 0.00000 0.00000 ; amides wlj 6/20/97
7042 7037 7038 7040 3
7042 7037 7038 7041 3
7044 7045 7046 7047 3 33.20422 0.00000 -33.20422 0.00000 0.00000 0.00000 ; methylguanidinium ion
7044 7045 7046 7052 3 20.50160 0.00000 -20.50160 0.00000 0.00000 0.00000 ; imides
7045 7046 7047 7048 3 25.47638 0.00000 -25.47638 0.00000 0.00000 0.00000 ; amides O-C(O)-N-C
7045 7046 7047 7050 3
7045 7046 7047 7051 3
7046 7047 7048 7049 3 16.73600 4.18400 -20.92000 0.00000 0.00000 0.00000 ; carbamates
7050 7047 7048 7049 3
7051 7047 7048 7049 3
7052 7046 7047 7048 3 20.50160 0.00000 -20.50160 0.00000 0.00000 0.00000 ; amides wlj 6/20/97
7052 7046 7047 7050 3
7052 7046 7047 7051 3
7054 7055 7056 7057 3 33.20422 0.00000 -33.20422 0.00000 0.00000 0.00000 ; methylguanidinium ion
7054 7055 7056 7060 3 20.50160 0.00000 -20.50160 0.00000 0.00000 0.00000 ; imides
7055 7056 7057 7058 3
7055 7056 7057 7059 3
7060 7056 7057 7058 3
7060 7056 7057 7059 3
7062 7063 7064 7065 3 33.20422 0.00000 -33.20422 0.00000 0.00000 0.00000 ; methylguanidinium ion
7062 7063 7064 7068 3 20.50160 0.00000 -20.50160 0.00000 0.00000 0.00000 ; imides
7063 7064 7065 7066 3
7063 7064 7065 7067 3
7068 7064 7065 7066 3
7068 7064 7065 7067 3
7070 7071 7072 7073 3 33.20422 0.00000 -33.20422 0.00000 0.00000 0.00000 ; methylguanidinium ion
7070 7071 7072 7076 3 20.50160 0.00000 -20.50160 0.00000 0.00000 0.00000 ; imides
7071 7072 7073 7074 3
7071 7072 7073 7075 3
7076 7072 7073 7074 3
7076 7072 7073 7075 3
7078 7079 7080 7081 3 33.20422 0.00000 -33.20422 0.00000 0.00000 0.00000 ; methylguanidinium ion
7078 7079 7080 7084 3 20.50160 0.00000 -20.50160 0.00000 0.00000 0.00000 ; imides
7079 7080 7081 7082 3
7079 7080 7081 7083 3
7084 7080 7081 7082 3
7084 7080 7081 7083 3
7086 7087 7088 7089 3 33.20422 0.00000 -33.20422 0.00000 0.00000 0.00000 ; methylguanidinium ion
7086 7087 7088 7094 3 20.50160 0.00000 -20.50160 0.00000 0.00000 0.00000 ; imides
7087 7088 7089 7090 3 25.47638 0.00000 -25.47638 0.00000 0.00000 0.00000 ; amides O-C(O)-N-C
7087 7088 7089 7092 3
7087 7088 7089 7093 3
7088 7089 7090 7091 3 16.73600 4.18400 -20.92000 0.00000 0.00000 0.00000 ; carbamates
7092 7089 7090 7091 3
7093 7089 7090 7091 3
7094 7088 7089 7090 3 20.50160 0.00000 -20.50160 0.00000 0.00000 0.00000 ; amides wlj 6/20/97
7094 7088 7089 7092 3
7094 7088 7089 7093 3
7096 7097 7098 7099 3 33.20422 0.00000 -33.20422 0.00000 0.00000 0.00000 ; methylguanidinium ion
7096 7097 7098 7103 3 20.50160 0.00000 -20.50160 0.00000 0.00000 0.00000 ; imides
7097 7098 7099 7100 3 25.47638 0.00000 -25.47638 0.00000 0.00000 0.00000 ; amides O-C(O)-N-C
7097 7098 7099 7101 3
7097 7098 7099 7102 3
7103 7098 7099 7100 3 20.50160 0.00000 -20.50160 0.00000 0.00000 0.00000 ; amides wlj 6/20/97
7103 7098 7099 7101 3
7103 7098 7099 7102 3
7105 7106 7107 7108 3 33.20422 0.00000 -33.20422 0.00000 0.00000 0.00000 ; methylguanidinium ion
7105 7106 7107 7112 3 20.50160 0.00000 -20.50160 0.00000 0.00000 0.00000 ; imides
7106 7107 7108 7109 3 25.47638 0.00000 -25.47638 0.00000 0.00000 0.00000 ; amides O-C(O)-N-C
7106 7107 7108 7110 3
7106 7107 7108 7111 3
7112 7107 7108 7109 3 20.50160 0.00000 -20.50160 0.00000 0.00000 0.00000 ; amides wlj 6/20/97
7112 7107 7108 7110 3
7112 7107 7108 7111 3
7114 7115 7116 7117 3 33.20422 0.00000 -33.20422 0.00000 0.00000 0.00000 ; methylguanidinium ion
7114 7115 7116 7120 3 20.50160 0.00000 -20.50160 0.00000 0.00000 0.00000 ; imides
7115 7116 7117 7118 3
7115 7116 7117 7119 3
7120 7116 7117 7118 3
7120 7116 7117 7119 3
7122 7123 7124 7125 3 33.20422 0.00000 -33.20422 0.00000 0.00000 0.00000 ; methylguanidinium ion
7122 7123 7124 7129 3 20.50160 0.00000 -20.50160 0.00000 0.00000 0.00000 ; imides
7123 7124 7125 7126 3 25.47638 0.00000 -25.47638 0.00000 0.00000 0.00000 ; amides O-C(O)-N-C
7123 7124 7125 7127 3
7123 7124 7125 7128 3
7129 7124 7125 7126 3 20.50160 0.00000 -20.50160 0.00000 0.00000 0.00000 ; amides wlj 6/20/97
7129 7124 7125 7127 3
7129 7124 7125 7128 3
7131 7132 7133 7134 3 33.20422 0.00000 -33.20422 0.00000 0.00000 0.00000 ; methylguanidinium ion
7131 7132 7133 7137 3 20.50160 0.00000 -20.50160 0.00000 0.00000 0.00000 ; imides
7132 7133 7134 7135 3
7132 7133 7134 7136 3
7137 7133 7134 7135 3
7137 7133 7134 7136 3
7139 7140 7141 7142 3 33.20422 0.00000 -33.20422 0.00000 0.00000 0.00000 ; methylguanidinium ion
7139 7140 7141 7145 3 20.50160 0.00000 -20.50160 0.00000 0.00000 0.00000 ; imides
7140 7141 7142 7143 3
7140 7141 7142 7144 3
7145 7141 7142 7143 3
7145 7141 7142 7144 3
7147 7148 7149 7150 3 33.20422 0.00000 -33.20422 0.00000 0.00000 0.00000 ; methylguanidinium ion
7147 7148 7149 7153 3 20.50160 0.00000 -20.50160 0.00000 0.00000 0.00000 ; imides
7148 7149 7150 7151 3
7148 7149 7150 7152 3
7153 7149 7150 7151 3
7153 7149 7150 7152 3
7155 7156 7157 7158 3 33.20422 0.00000 -33.20422 0.00000 0.00000 0.00000 ; methylguanidinium ion
7155 7156 7157 7162 3 20.50160 0.00000 -20.50160 0.00000 0.00000 0.00000 ; imides
7156 7157 7158 7159 3 25.47638 0.00000 -25.47638 0.00000 0.00000 0.00000 ; amides O-C(O)-N-C
7156 7157 7158 7160 3
7156 7157 7158 7161 3
7162 7157 7158 7159 3 20.50160 0.00000 -20.50160 0.00000 0.00000 0.00000 ; amides wlj 6/20/97
7162 7157 7158 7160 3
7162 7157 7158 7161 3
7164 7165 7166 7167 3 33.20422 0.00000 -33.20422 0.00000 0.00000 0.00000 ; methylguanidinium ion
7164 7165 7166 7171 3 20.50160 0.00000 -20.50160 0.00000 0.00000 0.00000 ; imides
7165 7166 7167 7168 3 25.47638 0.00000 -25.47638 0.00000 0.00000 0.00000 ; amides O-C(O)-N-C
7165 7166 7167 7169 3
7165 7166 7167 7170 3
7171 7166 7167 7168 3 20.50160 0.00000 -20.50160 0.00000 0.00000 0.00000 ; amides wlj 6/20/97
7171 7166 7167 7169 3
7171 7166 7167 7170 3
7173 7174 7175 7176 3 33.20422 0.00000 -33.20422 0.00000 0.00000 0.00000 ; methylguanidinium ion
7173 7174 7175 7180 3 20.50160 0.00000 -20.50160 0.00000 0.00000 0.00000 ; imides
7174 7175 7176 7177 3 25.47638 0.00000 -25.47638 0.00000 0.00000 0.00000 ; amides O-C(O)-N-C
7174 7175 7176 7178 3
7174 7175 7176 7179 3
7180 7175 7176 7177 3 20.50160 0.00000 -20.50160 0.00000 0.00000 0.00000 ; amides wlj 6/20/97
7180 7175 7176 7178 3
7180 7175 7176 7179 3
7182 7183 7184 7185 3 33.20422 0.00000 -33.20422 0.00000 0.00000 0.00000 ; methylguanidinium ion
7182 7183 7184 7190 3 20.50160 0.00000 -20.50160 0.00000 0.00000 0.00000 ; imides
7183 7184 7185 7186 3 25.47638 0.00000 -25.47638 0.00000 0.00000 0.00000 ; amides O-C(O)-N-C
7183 7184 7185 7188 3
7183 7184 7185 7189 3
7184 7185 7186 7187 3 16.73600 4.18400 -20.92000 0.00000 0.00000 0.00000 ; carbamates
7188 7185 7186 7187 3
7189 7185 7186 7187 3
7190 7184 7185 7186 3 20.50160 0.00000 -20.50160 0.00000 0.00000 0.00000 ; amides wlj 6/20/97
7190 7184 7185 7188 3
7190 7184 7185 7189 3
7192 7193 7194 7195 3 33.20422 0.00000 -33.20422 0.00000 0.00000 0.00000 ; methylguanidinium ion
7192 7193 7194 7198 3 20.50160 0.00000 -20.50160 0.00000 0.00000 0.00000 ; imides
7193 7194 7195 7196 3
7193 7194 7195 7197 3
7198 7194 7195 7196 3
7198 7194 7195 7197 3
7200 7201 7202 7203 3 33.20422 0.00000 -33.20422 0.00000 0.00000 0.00000 ; methylguanidinium ion
7200 7201 7202 7206 3 20.50160 0.00000 -20.50160 0.00000 0.00000 0.00000 ; imides
7201 7202 7203 7204 3
7201 7202 7203 7205 3
7206 7202 7203 7204 3
7206 7202 7203 7205 3
7208 7209 7210 7211 3 33.20422 0.00000 -33.20422 0.00000 0.00000 0.00000 ; methylguanidinium ion
7208 7209 7210 7214 3 20.50160 0.00000 -20.50160 0.00000 0.00000 0.00000 ; imides
7209 7210 7211 7212 3
7209 7210 7211 7213 3
7214 7210 7211 7212 3
7214 7210 7211 7213 3
7216 7217 7218 7219 3 33.20422 0.00000 -33.20422 0.00000 0.00000 0.00000 ; methylguanidinium ion
7216 7217 7218 7223 3 20.50160 0.00000 -20.50160 0.00000 0.00000 0.00000 ; imides
7217 7218 7219 7220 3 25.47638 0.00000 -25.47638 0.00000 0.00000 0.00000 ; amides O-C(O)-N-C
7217 7218 7219 7221 3
7217 7218 7219 7222 3
7223 7218 7219 7220 3 20.50160 0.00000 -20.50160 0.00000 0.00000 0.00000 ; amides wlj 6/20/97
7223 7218 7219 7221 3
7223 7218 7219 7222 3
7225 7226 7227 7228 3 33.20422 0.00000 -33.20422 0.00000 0.00000 0.00000 ; methylguanidinium ion
7225 7226 7227 7232 3 20.50160 0.00000 -20.50160 0.00000 0.00000 0.00000 ; imides
7226 7227 7228 7229 3 25.47638 0.00000 -25.47638 0.00000 0.00000 0.00000 ; amides O-C(O)-N-C
7226 7227 7228 7230 3
7226 7227 7228 7231 3
7232 7227 7228 7229 3 20.50160 0.00000 -20.50160 0.00000 0.00000 0.00000 ; amides wlj 6/20/97
7232 7227 7228 7230 3
7232 7227 7228 7231 3
7234 7235 7236 7237 3 33.20422 0.00000 -33.20422 0.00000 0.00000 0.00000 ; methylguanidinium ion
7234 7235 7236 7240 3 20.50160 0.00000 -20.50160 0.00000 0.00000 0.00000 ; imides
7235 7236 7237 7238 3
7235 7236 7237 7239 3
7240 7236 7237 7238 3
7240 7236 7237 7239 3
7242 7243 7244 7245 3 33.20422 0.00000 -33.20422 0.00000 0.00000 0.00000 ; methylguanidinium ion
7242 7243 7244 7248 3 20.50160 0.00000 -20.50160 0.00000 0.00000 0.00000 ; imides
7243 7244 7245 7246 3
7243 7244 7245 7247 3
7248 7244 7245 7246 3
7248 7244 7245 7247 3
7250 7251 7252 7253 3 33.20422 0.00000 -33.20422 0.00000 0.00000 0.00000 ; methylguanidinium ion
7250 7251 7252 7258 3 20.50160 0.00000 -20.50160 0.00000 0.00000 0.00000 ; imides
7251 7252 7253 7254 3 25.47638 0.00000 -25.47638 0.00000 0.00000 0.00000 ; amides O-C(O)-N-C
7251 7252 7253 7256 3
7251 7252 7253 7257 3
7252 7253 7254 7255 3 16.73600 4.18400 -20.92000 0.00000 0.00000 0.00000 ; carbamates
7256 7253 7254 7255 3
7257 7253 7254 7255 3
7258 7252 7253 7254 3 20.50160 0.00000 -20.50160 0.00000 0.00000 0.00000 ; amides wlj 6/20/97
7258 7252 7253 7256 3
7258 7252 7253 7257 3
7260 7261 7262 7263 3 33.20422 0.00000 -33.20422 0.00000 0.00000 0.00000 ; methylguanidinium ion
7260 7261 7262 7266 3 20.50160 0.00000 -20.50160 0.00000 0.00000 0.00000 ; imides
7261 7262 7263 7264 3
7261 7262 7263 7265 3
7266 7262 7263 7264 3
7266 7262 7263 7265 3
7268 7269 7270 7271 3 33.20422 0.00000 -33.20422 0.00000 0.00000 0.00000 ; methylguanidinium ion
7268 7269 7270 7274 3 20.50160 0.00000 -20.50160 0.00000 0.00000 0.00000 ; imides
7269 7270 7271 7272 3
7269 7270 7271 7273 3
7274 7270 7271 7272 3
7274 7270 7271 7273 3
7276 7277 7278 7279 3 33.20422 0.00000 -33.20422 0.00000 0.00000 0.00000 ; methylguanidinium ion
7276 7277 7278 7283 3 20.50160 0.00000 -20.50160 0.00000 0.00000 0.00000 ; imides
7277 7278 7279 7280 3 25.47638 0.00000 -25.47638 0.00000 0.00000 0.00000 ; amides O-C(O)-N-C
7277 7278 7279 7281 3
7277 7278 7279 7282 3
7283 7278 7279 7280 3 20.50160 0.00000 -20.50160 0.00000 0.00000 0.00000 ; amides wlj 6/20/97
7283 7278 7279 7281 3
7283 7278 7279 7282 3
7285 7286 7287 7288 3 33.20422 0.00000 -33.20422 0.00000 0.00000 0.00000 ; methylguanidinium ion
7285 7286 7287 7291 3 20.50160 0.00000 -20.50160 0.00000 0.00000 0.00000 ; imides
7286 7287 7288 7289 3
7286 7287 7288 7290 3
7291 7287 7288 7289 3
7291 7287 7288 7290 3
7293 7294 7295 7296 3 33.20422 0.00000 -33.20422 0.00000 0.00000 0.00000 ; methylguanidinium ion
7293 7294 7295 7301 3 20.50160 0.00000 -20.50160 0.00000 0.00000 0.00000 ; imides
7294 7295 7296 7297 3 25.47638 0.00000 -25.47638 0.00000 0.00000 0.00000 ; amides O-C(O)-N-C
7294 7295 7296 7299 3
7294 7295 7296 7300 3
7295 7296 7297 7298 3 16.73600 4.18400 -20.92000 0.00000 0.00000 0.00000 ; carbamates
7299 7296 7297 7298 3
7300 7296 7297 7298 3
7301 7295 7296 7297 3 20.50160 0.00000 -20.50160 0.00000 0.00000 0.00000 ; amides wlj 6/20/97
7301 7295 7296 7299 3
7301 7295 7296 7300 3
7303 7304 7305 7306 3 33.20422 0.00000 -33.20422 0.00000 0.00000 0.00000 ; methylguanidinium ion
7303 7304 7305 7310 3 20.50160 0.00000 -20.50160 0.00000 0.00000 0.00000 ; imides
7304 7305 7306 7307 3 25.47638 0.00000 -25.47638 0.00000 0.00000 0.00000 ; amides O-C(O)-N-C
7304 7305 7306 7308 3
7304 7305 7306 7309 3
7310 7305 7306 7307 3 20.50160 0.00000 -20.50160 0.00000 0.00000 0.00000 ; amides wlj 6/20/97
7310 7305 7306 7308 3
7310 7305 7306 7309 3
7312 7313 7314 7315 3 33.20422 0.00000 -33.20422 0.00000 0.00000 0.00000 ; methylguanidinium ion
7312 7313 7314 7319 3 20.50160 0.00000 -20.50160 0.00000 0.00000 0.00000 ; imides
7313 7314 7315 7316 3 25.47638 0.00000 -25.47638 0.00000 0.00000 0.00000 ; amides O-C(O)-N-C
7313 7314 7315 7317 3
7313 7314 7315 7318 3
7319 7314 7315 7316 3 20.50160 0.00000 -20.50160 0.00000 0.00000 0.00000 ; amides wlj 6/20/97
7319 7314 7315 7317 3
7319 7314 7315 7318 3
7321 7322 7323 7324 3 33.20422 0.00000 -33.20422 0.00000 0.00000 0.00000 ; methylguanidinium ion
7321 7322 7323 7328 3 20.50160 0.00000 -20.50160 0.00000 0.00000 0.00000 ; imides
7322 7323 7324 7325 3 25.47638 0.00000 -25.47638 0.00000 0.00000 0.00000 ; amides O-C(O)-N-C
7322 7323 7324 7326 3
7322 7323 7324 7327 3
7328 7323 7324 7325 3 20.50160 0.00000 -20.50160 0.00000 0.00000 0.00000 ; amides wlj 6/20/97
7328 7323 7324 7326 3
7328 7323 7324 7327 3
7330 7331 7332 7333 3 33.20422 0.00000 -33.20422 0.00000 0.00000 0.00000 ; methylguanidinium ion
7330 7331 7332 7338 3 20.50160 0.00000 -20.50160 0.00000 0.00000 0.00000 ; imides
7331 7332 7333 7334 3 25.47638 0.00000 -25.47638 0.00000 0.00000 0.00000 ; amides O-C(O)-N-C
7331 7332 7333 7336 3
7331 7332 7333 7337 3
7332 7333 7334 7335 3 16.73600 4.18400 -20.92000 0.00000 0.00000 0.00000 ; carbamates
7336 7333 7334 7335 3
7337 7333 7334 7335 3
7338 7332 7333 7334 3 20.50160 0.00000 -20.50160 0.00000 0.00000 0.00000 ; amides wlj 6/20/97
7338 7332 7333 7336 3
7338 7332 7333 7337 3
7340 7341 7342 7343 3 33.20422 0.00000 -33.20422 0.00000 0.00000 0.00000 ; methylguanidinium ion
7340 7341 7342 7346 3 20.50160 0.00000 -20.50160 0.00000 0.00000 0.00000 ; imides
7341 7342 7343 7344 3
7341 7342 7343 7345 3
7346 7342 7343 7344 3
7346 7342 7343 7345 3
7348 7349 7350 7351 3 33.20422 0.00000 -33.20422 0.00000 0.00000 0.00000 ; methylguanidinium ion
7348 7349 7350 7354 3 20.50160 0.00000 -20.50160 0.00000 0.00000 0.00000 ; imides
7349 7350 7351 7352 3
7349 7350 7351 7353 3
7354 7350 7351 7352 3
7354 7350 7351 7353 3
7356 7357 7358 7359 3 33.20422 0.00000 -33.20422 0.00000 0.00000 0.00000 ; methylguanidinium ion
7356 7357 7358 7362 3 20.50160 0.00000 -20.50160 0.00000 0.00000 0.00000 ; imides
7357 7358 7359 7360 3
7357 7358 7359 7361 3
7362 7358 7359 7360 3
7362 7358 7359 7361 3
7364 7365 7366 7367 3 33.20422 0.00000 -33.20422 0.00000 0.00000 0.00000 ; methylguanidinium ion
7364 7365 7366 7371 3 20.50160 0.00000 -20.50160 0.00000 0.00000 0.00000 ; imides
7365 7366 7367 7368 3 25.47638 0.00000 -25.47638 0.00000 0.00000 0.00000 ; amides O-C(O)-N-C
7365 7366 7367 7369 3
7365 7366 7367 7370 3
7371 7366 7367 7368 3 20.50160 0.00000 -20.50160 0.00000 0.00000 0.00000 ; amides wlj 6/20/97
7371 7366 7367 7369 3
7371 7366 7367 7370 3
7373 7374 7375 7376 3 33.20422 0.00000 -33.20422 0.00000 0.00000 0.00000 ; methylguanidinium ion
7373 7374 7375 7381 3 20.50160 0.00000 -20.50160 0.00000 0.00000 0.00000 ; imides
7374 7375 7376 7377 3 25.47638 0.00000 -25.47638 0.00000 0.00000 0.00000 ; amides O-C(O)-N-C
7374 7375 7376 7379 3
7374 7375 7376 7380 3
7375 7376 7377 7378 3 16.73600 4.18400 -20.92000 0.00000 0.00000 0.00000 ; carbamates
7379 7376 7377 7378 3
7380 7376 7377 7378 3
7381 7375 7376 7377 3 20.50160 0.00000 -20.50160 0.00000 0.00000 0.00000 ; amides wlj 6/20/97
7381 7375 7376 7379 3
7381 7375 7376 7380 3
7383 7384 7385 7386 3 33.20422 0.00000 -33.20422 0.00000 0.00000 0.00000 ; methylguanidinium ion
7383 7384 7385 7390 3 20.50160 0.00000 -20.50160 0.00000 0.00000 0.00000 ; imides
7384 7385 7386 7387 3 25.47638 0.00000 -25.47638 0.00000 0.00000 0.00000 ; amides O-C(O)-N-C
7384 7385 7386 7388 3
7384 7385 7386 7389 3
7390 7385 7386 7387 3 20.50160 0.00000 -20.50160 0.00000 0.00000 0.00000 ; amides wlj 6/20/97
7390 7385 7386 7388 3
7390 7385 7386 7389 3
7392 7393 7394 7395 3 33.20422 0.00000 -33.20422 0.00000 0.00000 0.00000 ; methylguanidinium ion
7392 7393 7394 7398 3 20.50160 0.00000 -20.50160 0.00000 0.00000 0.00000 ; imides
7393 7394 7395 7396 3
7393 7394 7395 7397 3
7398 7394 7395 7396 3
7398 7394 7395 7397 3
7400 7401 7402 7403 3 33.20422 0.00000 -33.20422 0.00000 0.00000 0.00000 ; methylguanidinium ion
7400 7401 7402 7406 3 20.50160 0.00000 -20.50160 0.00000 0.00000 0.00000 ; imides
7401 7402 7403 7404 3
7401 7402 7403 7405 3
7406 7402 7403 7404 3
7406 7402 7403 7405 3
7408 7409 7410 7411 3 33.20422 0.00000 -33.20422 0.00000 0.00000 0.00000 ; methylguanidinium ion
7408 7409 7410 7414 3 20.50160 0.00000 -20.50160 0.00000 0.00000 0.00000 ; imides
7409 7410 7411 7412 3
7409 7410 7411 7413 3
7414 7410 7411 7412 3
7414 7410 7411 7413 3
7416 7417 7418 7419 3 33.20422 0.00000 -33.20422 0.00000 0.00000 0.00000 ; methylguanidinium ion
7416 7417 7418 7422 3 20.50160 0.00000 -20.50160 0.00000 0.00000 0.00000 ; imides
7417 7418 7419 7420 3
7417 7418 7419 7421 3
7422 7418 7419 7420 3
7422 7418 7419 7421 3
7424 7425 7426 7427 3 33.20422 0.00000 -33.20422 0.00000 0.00000 0.00000 ; methylguanidinium ion
7424 7425 7426 7430 3 20.50160 0.00000 -20.50160 0.00000 0.00000 0.00000 ; imides
7425 7426 7427 7428 3
7425 7426 7427 7429 3
7430 7426 7427 7428 3
7430 7426 7427 7429 3
7432 7433 7434 7435 3 33.20422 0.00000 -33.20422 0.00000 0.00000 0.00000 ; methylguanidinium ion
7432 7433 7434 7438 3 20.50160 0.00000 -20.50160 0.00000 0.00000 0.00000 ; imides
7433 7434 7435 7436 3
7433 7434 7435 7437 3
7438 7434 7435 7436 3
7438 7434 7435 7437 3
7440 7441 7442 7443 3 33.20422 0.00000 -33.20422 0.00000 0.00000 0.00000 ; methylguanidinium ion
7440 7441 7442 7446 3 20.50160 0.00000 -20.50160 0.00000 0.00000 0.00000 ; imides
7441 7442 7443 7444 3
7441 7442 7443 7445 3
7446 7442 7443 7444 3
7446 7442 7443 7445 3
7448 7449 7450 7451 3 33.20422 0.00000 -33.20422 0.00000 0.00000 0.00000 ; methylguanidinium ion
7448 7449 7450 7455 3 20.50160 0.00000 -20.50160 0.00000 0.00000 0.00000 ; imides
7449 7450 7451 7452 3 25.47638 0.00000 -25.47638 0.00000 0.00000 0.00000 ; amides O-C(O)-N-C
7449 7450 7451 7453 3
7449 7450 7451 7454 3
7455 7450 7451 7452 3 20.50160 0.00000 -20.50160 0.00000 0.00000 0.00000 ; amides wlj 6/20/97
7455 7450 7451 7453 3
7455 7450 7451 7454 3
7457 7458 7459 7460 3 33.20422 0.00000 -33.20422 0.00000 0.00000 0.00000 ; methylguanidinium ion
7457 7458 7459 7464 3 20.50160 0.00000 -20.50160 0.00000 0.00000 0.00000 ; imides
7458 7459 7460 7461 3 25.47638 0.00000 -25.47638 0.00000 0.00000 0.00000 ; amides O-C(O)-N-C
7458 7459 7460 7462 3
7458 7459 7460 7463 3
7464 7459 7460 7461 3 20.50160 0.00000 -20.50160 0.00000 0.00000 0.00000 ; amides wlj 6/20/97
7464 7459 7460 7462 3
7464 7459 7460 7463 3
7466 7467 7468 7469 3 33.20422 0.00000 -33.20422 0.00000 0.00000 0.00000 ; methylguanidinium ion
7466 7467 7468 7472 3 20.50160 0.00000 -20.50160 0.00000 0.00000 0.00000 ; imides
7467 7468 7469 7470 3
7467 7468 7469 7471 3
7472 7468 7469 7470 3
7472 7468 7469 7471 3
7474 7475 7476 7477 3 33.20422 0.00000 -33.20422 0.00000 0.00000 0.00000 ; methylguanidinium ion
7474 7475 7476 7480 3 20.50160 0.00000 -20.50160 0.00000 0.00000 0.00000 ; imides
7475 7476 7477 7478 3
7475 7476 7477 7479 3
7480 7476 7477 7478 3
7480 7476 7477 7479 3
7482 7483 7484 7485 3 33.20422 0.00000 -33.20422 0.00000 0.00000 0.00000 ; methylguanidinium ion
7482 7483 7484 7490 3 20.50160 0.00000 -20.50160 0.00000 0.00000 0.00000 ; imides
7483 7484 7485 7486 3 25.47638 0.00000 -25.47638 0.00000 0.00000 0.00000 ; amides O-C(O)-N-C
7483 7484 7485 7488 3
7483 7484 7485 7489 3
7484 7485 7486 7487 3 16.73600 4.18400 -20.92000 0.00000 0.00000 0.00000 ; carbamates
7488 7485 7486 7487 3
7489 7485 7486 7487 3
7490 7484 7485 7486 3 20.50160 0.00000 -20.50160 0.00000 0.00000 0.00000 ; amides wlj 6/20/97
7490 7484 7485 7488 3
7490 7484 7485 7489 3
7492 7493 7494 7495 3 33.20422 0.00000 -33.20422 0.00000 0.00000 0.00000 ; methylguanidinium ion
7492 7493 7494 7499 3 20.50160 0.00000 -20.50160 0.00000 0.00000 0.00000 ; imides
7493 7494 7495 7496 3 25.47638 0.00000 -25.47638 0.00000 0.00000 0.00000 ; amides O-C(O)-N-C
7493 7494 7495 7497 3
7493 7494 7495 7498 3
7499 7494 7495 7496 3 20.50160 0.00000 -20.50160 0.00000 0.00000 0.00000 ; amides wlj 6/20/97
7499 7494 7495 7497 3
7499 7494 7495 7498 3
7501 7502 7503 7504 3 33.20422 0.00000 -33.20422 0.00000 0.00000 0.00000 ; methylguanidinium ion
7501 7502 7503 7507 3 20.50160 0.00000 -20.50160 0.00000 0.00000 0.00000 ; imides
7502 7503 7504 7505 3
7502 7503 7504 7506 3
7507 7503 7504 7505 3
7507 7503 7504 7506 3
7509 7510 7511 7512 3 33.20422 0.00000 -33.20422 0.00000 0.00000 0.00000 ; methylguanidinium ion
7509 7510 7511 7516 3 20.50160 0.00000 -20.50160 0.00000 0.00000 0.00000 ; imides
7510 7511 7512 7513 3 25.47638 0.00000 -25.47638 0.00000 0.00000 0.00000 ; amides O-C(O)-N-C
7510 7511 7512 7514 3
7510 7511 7512 7515 3
7516 7511 7512 7513 3 20.50160 0.00000 -20.50160 0.00000 0.00000 0.00000 ; amides wlj 6/20/97
7516 7511 7512 7514 3
7516 7511 7512 7515 3
7518 7519 7520 7521 3 33.20422 0.00000 -33.20422 0.00000 0.00000 0.00000 ; methylguanidinium ion
7518 7519 7520 7525 3 20.50160 0.00000 -20.50160 0.00000 0.00000 0.00000 ; imides
7519 7520 7521 7522 3 25.47638 0.00000 -25.47638 0.00000 0.00000 0.00000 ; amides O-C(O)-N-C
7519 7520 7521 7523 3
7519 7520 7521 7524 3
7525 7520 7521 7522 3 20.50160 0.00000 -20.50160 0.00000 0.00000 0.00000 ; amides wlj 6/20/97
7525 7520 7521 7523 3
7525 7520 7521 7524 3
7527 7528 7529 7530 3 33.20422 0.00000 -33.20422 0.00000 0.00000 0.00000 ; methylguanidinium ion
7527 7528 7529 7533 3 20.50160 0.00000 -20.50160 0.00000 0.00000 0.00000 ; imides
7528 7529 7530 7531 3
7528 7529 7530 7532 3
7533 7529 7530 7531 3
7533 7529 7530 7532 3
7535 7536 7537 7538 3 33.20422 0.00000 -33.20422 0.00000 0.00000 0.00000 ; methylguanidinium ion
7535 7536 7537 7542 3 20.50160 0.00000 -20.50160 0.00000 0.00000 0.00000 ; imides
7536 7537 7538 7539 3 25.47638 0.00000 -25.47638 0.00000 0.00000 0.00000 ; amides O-C(O)-N-C
7536 7537 7538 7540 3
7536 7537 7538 7541 3
7542 7537 7538 7539 3 20.50160 0.00000 -20.50160 0.00000 0.00000 0.00000 ; amides wlj 6/20/97
7542 7537 7538 7540 3
7542 7537 7538 7541 3
7544 7545 7546 7547 3 33.20422 0.00000 -33.20422 0.00000 0.00000 0.00000 ; methylguanidinium ion
7544 7545 7546 7550 3 20.50160 0.00000 -20.50160 0.00000 0.00000 0.00000 ; imides
7545 7546 7547 7548 3
7545 7546 7547 7549 3
7550 7546 7547 7548 3
7550 7546 7547 7549 3
7552 7553 7554 7555 3 33.20422 0.00000 -33.20422 0.00000 0.00000 0.00000 ; methylguanidinium ion
7552 7553 7554 7559 3 20.50160 0.00000 -20.50160 0.00000 0.00000 0.00000 ; imides
7553 7554 7555 7556 3 25.47638 0.00000 -25.47638 0.00000 0.00000 0.00000 ; amides O-C(O)-N-C
7553 7554 7555 7557 3
7553 7554 7555 7558 3
7559 7554 7555 7556 3 20.50160 0.00000 -20.50160 0.00000 0.00000 0.00000 ; amides wlj 6/20/97
7559 7554 7555 7557 3
7559 7554 7555 7558 3
7561 7562 7563 7564 3 33.20422 0.00000 -33.20422 0.00000 0.00000 0.00000 ; methylguanidinium ion
7561 7562 7563 7568 3 20.50160 0.00000 -20.50160 0.00000 0.00000 0.00000 ; imides
7562 7563 7564 7565 3 25.47638 0.00000 -25.47638 0.00000 0.00000 0.00000 ; amides O-C(O)-N-C
7562 7563 7564 7566 3
7562 7563 7564 7567 3
7568 7563 7564 7565 3 20.50160 0.00000 -20.50160 0.00000 0.00000 0.00000 ; amides wlj 6/20/97
7568 7563 7564 7566 3
7568 7563 7564 7567 3
7570 7571 7572 7573 3 33.20422 0.00000 -33.20422 0.00000 0.00000 0.00000 ; methylguanidinium ion
7570 7571 7572 7577 3 20.50160 0.00000 -20.50160 0.00000 0.00000 0.00000 ; imides
7571 7572 7573 7574 3 25.47638 0.00000 -25.47638 0.00000 0.00000 0.00000 ; amides O-C(O)-N-C
7571 7572 7573 7575 3
7571 7572 7573 7576 3
7577 7572 7573 7574 3 20.50160 0.00000 -20.50160 0.00000 0.00000 0.00000 ; amides wlj 6/20/97
7577 7572 7573 7575 3
7577 7572 7573 7576 3
7579 7580 7581 7582 3 33.20422 0.00000 -33.20422 0.00000 0.00000 0.00000 ; methylguanidinium ion
7579 7580 7581 7586 3 20.50160 0.00000 -20.50160 0.00000 0.00000 0.00000 ; imides
7580 7581 7582 7583 3 25.47638 0.00000 -25.47638 0.00000 0.00000 0.00000 ; amides O-C(O)-N-C
7580 7581 7582 7584 3
7580 7581 7582 7585 3
7586 7581 7582 7583 3 20.50160 0.00000 -20.50160 0.00000 0.00000 0.00000 ; amides wlj 6/20/97
7586 7581 7582 7584 3
7586 7581 7582 7585 3
7588 7589 7590 7591 3 33.20422 0.00000 -33.20422 0.00000 0.00000 0.00000 ; methylguanidinium ion
7588 7589 7590 7596 3 20.50160 0.00000 -20.50160 0.00000 0.00000 0.00000 ; imides
7589 7590 7591 7592 3 25.47638 0.00000 -25.47638 0.00000 0.00000 0.00000 ; amides O-C(O)-N-C
7589 7590 7591 7594 3
7589 7590 7591 7595 3
7590 7591 7592 7593 3 16.73600 4.18400 -20.92000 0.00000 0.00000 0.00000 ; carbamates
7594 7591 7592 7593 3
7595 7591 7592 7593 3
7596 7590 7591 7592 3 20.50160 0.00000 -20.50160 0.00000 0.00000 0.00000 ; amides wlj 6/20/97
7596 7590 7591 7594 3
7596 7590 7591 7595 3
7598 7599 7600 7601 3 33.20422 0.00000 -33.20422 0.00000 0.00000 0.00000 ; methylguanidinium ion
7598 7599 7600 7604 3 20.50160 0.00000 -20.50160 0.00000 0.00000 0.00000 ; imides
7599 7600 7601 7602 3
7599 7600 7601 7603 3
7604 7600 7601 7602 3
7604 7600 7601 7603 3
7606 7607 7608 7609 3 33.20422 0.00000 -33.20422 0.00000 0.00000 0.00000 ; methylguanidinium ion
7606 7607 7608 7612 3 20.50160 0.00000 -20.50160 0.00000 0.00000 0.00000 ; imides
7607 7608 7609 7610 3
7607 7608 7609 7611 3
7612 7608 7609 7610 3
7612 7608 7609 7611 3
7614 7615 7616 7617 3 33.20422 0.00000 -33.20422 0.00000 0.00000 0.00000 ; methylguanidinium ion
7614 7615 7616 7620 3 20.50160 0.00000 -20.50160 0.00000 0.00000 0.00000 ; imides
7615 7616 7617 7618 3
7615 7616 7617 7619 3
7620 7616 7617 7618 3
7620 7616 7617 7619 3
7622 7623 7624 7625 3 33.20422 0.00000 -33.20422 0.00000 0.00000 0.00000 ; methylguanidinium ion
7622 7623 7624 7630 3 20.50160 0.00000 -20.50160 0.00000 0.00000 0.00000 ; imides
7623 7624 7625 7626 3 25.47638 0.00000 -25.47638 0.00000 0.00000 0.00000 ; amides O-C(O)-N-C
7623 7624 7625 7628 3
7623 7624 7625 7629 3
7624 7625 7626 7627 3 16.73600 4.18400 -20.92000 0.00000 0.00000 0.00000 ; carbamates
7628 7625 7626 7627 3
7629 7625 7626 7627 3
7630 7624 7625 7626 3 20.50160 0.00000 -20.50160 0.00000 0.00000 0.00000 ; amides wlj 6/20/97
7630 7624 7625 7628 3
7630 7624 7625 7629 3
7632 7633 7634 7635 3 33.20422 0.00000 -33.20422 0.00000 0.00000 0.00000 ; methylguanidinium ion
7632 7633 7634 7639 3 20.50160 0.00000 -20.50160 0.00000 0.00000 0.00000 ; imides
7633 7634 7635 7636 3 25.47638 0.00000 -25.47638 0.00000 0.00000 0.00000 ; amides O-C(O)-N-C
7633 7634 7635 7637 3
7633 7634 7635 7638 3
7639 7634 7635 7636 3 20.50160 0.00000 -20.50160 0.00000 0.00000 0.00000 ; amides wlj 6/20/97
7639 7634 7635 7637 3
7639 7634 7635 7638 3
7641 7642 7643 7644 3 33.20422 0.00000 -33.20422 0.00000 0.00000 0.00000 ; methylguanidinium ion
7641 7642 7643 7648 3 20.50160 0.00000 -20.50160 0.00000 0.00000 0.00000 ; imides
7642 7643 7644 7645 3 25.47638 0.00000 -25.47638 0.00000 0.00000 0.00000 ; amides O-C(O)-N-C
7642 7643 7644 7646 3
7642 7643 7644 7647 3
7648 7643 7644 7645 3 20.50160 0.00000 -20.50160 0.00000 0.00000 0.00000 ; amides wlj 6/20/97
7648 7643 7644 7646 3
7648 7643 7644 7647 3
7650 7651 7652 7653 3 33.20422 0.00000 -33.20422 0.00000 0.00000 0.00000 ; methylguanidinium ion
7650 7651 7652 7656 3 20.50160 0.00000 -20.50160 0.00000 0.00000 0.00000 ; imides
7651 7652 7653 7654 3
7651 7652 7653 7655 3
7656 7652 7653 7654 3
7656 7652 7653 7655 3
7658 7659 7660 7661 3 33.20422 0.00000 -33.20422 0.00000 0.00000 0.00000 ; methylguanidinium ion
7658 7659 7660 7664 3 20.50160 0.00000 -20.50160 0.00000 0.00000 0.00000 ; imides
7659 7660 7661 7662 3
7659 7660 7661 7663 3
7664 7660 7661 7662 3
7664 7660 7661 7663 3
7666 7667 7668 7669 3 33.20422 0.00000 -33.20422 0.00000 0.00000 0.00000 ; methylguanidinium ion
7666 7667 7668 7673 3 20.50160 0.00000 -20.50160 0.00000 0.00000 0.00000 ; imides
7667 7668 7669 7670 3 25.47638 0.00000 -25.47638 0.00000 0.00000 0.00000 ; amides O-C(O)-N-C
7667 7668 7669 7671 3
7667 7668 7669 7672 3
7673 7668 7669 7670 3 20.50160 0.00000 -20.50160 0.00000 0.00000 0.00000 ; amides wlj 6/20/97
7673 7668 7669 7671 3
7673 7668 7669 7672 3
7675 7676 7677 7678 3 33.20422 0.00000 -33.20422 0.00000 0.00000 0.00000 ; methylguanidinium ion
7675 7676 7677 7681 3 20.50160 0.00000 -20.50160 0.00000 0.00000 0.00000 ; imides
7676 7677 7678 7679 3
7676 7677 7678 7680 3
7681 7677 7678 7679 3
7681 7677 7678 7680 3
7683 7684 7685 7686 3 33.20422 0.00000 -33.20422 0.00000 0.00000 0.00000 ; methylguanidinium ion
7683 7684 7685 7689 3 20.50160 0.00000 -20.50160 0.00000 0.00000 0.00000 ; imides
7684 7685 7686 7687 3
7684 7685 7686 7688 3
7689 7685 7686 7687 3
7689 7685 7686 7688 3
7691 7692 7693 7694 3 33.20422 0.00000 -33.20422 0.00000 0.00000 0.00000 ; methylguanidinium ion
7691 7692 7693 7698 3 20.50160 0.00000 -20.50160 0.00000 0.00000 0.00000 ; imides
7692 7693 7694 7695 3 25.47638 0.00000 -25.47638 0.00000 0.00000 0.00000 ; amides O-C(O)-N-C
7692 7693 7694 7696 3
7692 7693 7694 7697 3
7698 7693 7694 7695 3 20.50160 0.00000 -20.50160 0.00000 0.00000 0.00000 ; amides wlj 6/20/97
7698 7693 7694 7696 3
7698 7693 7694 7697 3
7700 7701 7702 7703 3 33.20422 0.00000 -33.20422 0.00000 0.00000 0.00000 ; methylguanidinium ion
7700 7701 7702 7707 3 20.50160 0.00000 -20.50160 0.00000 0.00000 0.00000 ; imides
7701 7702 7703 7704 3 25.47638 0.00000 -25.47638 0.00000 0.00000 0.00000 ; amides O-C(O)-N-C
7701 7702 7703 7705 3
7701 7702 7703 7706 3
7707 7702 7703 7704 3 20.50160 0.00000 -20.50160 0.00000 0.00000 0.00000 ; amides wlj 6/20/97
7707 7702 7703 7705 3
7707 7702 7703 7706 3
7709 7710 7711 7712 3 33.20422 0.00000 -33.20422 0.00000 0.00000 0.00000 ; methylguanidinium ion
7709 7710 7711 7716 3 20.50160 0.00000 -20.50160 0.00000 0.00000 0.00000 ; imides
7710 7711 7712 7713 3 25.47638 0.00000 -25.47638 0.00000 0.00000 0.00000 ; amides O-C(O)-N-C
7710 7711 7712 7714 3
7710 7711 7712 7715 3
7716 7711 7712 7713 3 20.50160 0.00000 -20.50160 0.00000 0.00000 0.00000 ; amides wlj 6/20/97
7716 7711 7712 7714 3
7716 7711 7712 7715 3
7718 7719 7720 7721 3 33.20422 0.00000 -33.20422 0.00000 0.00000 0.00000 ; methylguanidinium ion
7718 7719 7720 7724 3 20.50160 0.00000 -20.50160 0.00000 0.00000 0.00000 ; imides
7719 7720 7721 7722 3
7719 7720 7721 7723 3
7724 7720 7721 7722 3
7724 7720 7721 7723 3
7726 7727 7728 7729 3 33.20422 0.00000 -33.20422 0.00000 0.00000 0.00000 ; methylguanidinium ion
7726 7727 7728 7733 3 20.50160 0.00000 -20.50160 0.00000 0.00000 0.00000 ; imides
7727 7728 7729 7730 3 25.47638 0.00000 -25.47638 0.00000 0.00000 0.00000 ; amides O-C(O)-N-C
7727 7728 7729 7731 3
7727 7728 7729 7732 3
7733 7728 7729 7730 3 20.50160 0.00000 -20.50160 0.00000 0.00000 0.00000 ; amides wlj 6/20/97
7733 7728 7729 7731 3
7733 7728 7729 7732 3
7735 7736 7737 7738 3 33.20422 0.00000 -33.20422 0.00000 0.00000 0.00000 ; methylguanidinium ion
7735 7736 7737 7742 3 20.50160 0.00000 -20.50160 0.00000 0.00000 0.00000 ; imides
7736 7737 7738 7739 3 25.47638 0.00000 -25.47638 0.00000 0.00000 0.00000 ; amides O-C(O)-N-C
7736 7737 7738 7740 3
7736 7737 7738 7741 3
7742 7737 7738 7739 3 20.50160 0.00000 -20.50160 0.00000 0.00000 0.00000 ; amides wlj 6/20/97
7742 7737 7738 7740 3
7742 7737 7738 7741 3
7744 7745 7746 7747 3 33.20422 0.00000 -33.20422 0.00000 0.00000 0.00000 ; methylguanidinium ion
7744 7745 7746 7750 3 20.50160 0.00000 -20.50160 0.00000 0.00000 0.00000 ; imides
7745 7746 7747 7748 3
7745 7746 7747 7749 3
7750 7746 7747 7748 3
7750 7746 7747 7749 3
7752 7753 7754 7755 3 33.20422 0.00000 -33.20422 0.00000 0.00000 0.00000 ; methylguanidinium ion
7752 7753 7754 7758 3 20.50160 0.00000 -20.50160 0.00000 0.00000 0.00000 ; imides
7753 7754 7755 7756 3
7753 7754 7755 7757 3
7758 7754 7755 7756 3
7758 7754 7755 7757 3
7760 7761 7762 7763 3 33.20422 0.00000 -33.20422 0.00000 0.00000 0.00000 ; methylguanidinium ion
7760 7761 7762 7767 3 20.50160 0.00000 -20.50160 0.00000 0.00000 0.00000 ; imides
7761 7762 7763 7764 3 25.47638 0.00000 -25.47638 0.00000 0.00000 0.00000 ; amides O-C(O)-N-C
7761 7762 7763 7765 3
7761 7762 7763 7766 3
7767 7762 7763 7764 3 20.50160 0.00000 -20.50160 0.00000 0.00000 0.00000 ; amides wlj 6/20/97
7767 7762 7763 7765 3
7767 7762 7763 7766 3
7769 7770 7771 7772 3 33.20422 0.00000 -33.20422 0.00000 0.00000 0.00000 ; methylguanidinium ion
7769 7770 7771 7775 3 20.50160 0.00000 -20.50160 0.00000 0.00000 0.00000 ; imides
7770 7771 7772 7773 3
7770 7771 7772 7774 3
7775 7771 7772 7773 3
7775 7771 7772 7774 3
7777 7778 7779 7780 3 33.20422 0.00000 -33.20422 0.00000 0.00000 0.00000 ; methylguanidinium ion
7777 7778 7779 7785 3 20.50160 0.00000 -20.50160 0.00000 0.00000 0.00000 ; imides
7778 7779 7780 7781 3 25.47638 0.00000 -25.47638 0.00000 0.00000 0.00000 ; amides O-C(O)-N-C
7778 7779 7780 7783 3
7778 7779 7780 7784 3
7779 7780 7781 7782 3 16.73600 4.18400 -20.92000 0.00000 0.00000 0.00000 ; carbamates
7783 7780 7781 7782 3
7784 7780 7781 7782 3
7785 7779 7780 7781 3 20.50160 0.00000 -20.50160 0.00000 0.00000 0.00000 ; amides wlj 6/20/97
7785 7779 7780 7783 3
7785 7779 7780 7784 3
7787 7788 7789 7790 3 33.20422 0.00000 -33.20422 0.00000 0.00000 0.00000 ; methylguanidinium ion
7787 7788 7789 7794 3 20.50160 0.00000 -20.50160 0.00000 0.00000 0.00000 ; imides
7788 7789 7790 7791 3 25.47638 0.00000 -25.47638 0.00000 0.00000 0.00000 ; amides O-C(O)-N-C
7788 7789 7790 7792 3
7788 7789 7790 7793 3
7794 7789 7790 7791 3 20.50160 0.00000 -20.50160 0.00000 0.00000 0.00000 ; amides wlj 6/20/97
7794 7789 7790 7792 3
7794 7789 7790 7793 3
7796 7797 7798 7799 3 33.20422 0.00000 -33.20422 0.00000 0.00000 0.00000 ; methylguanidinium ion
7796 7797 7798 7802 3 20.50160 0.00000 -20.50160 0.00000 0.00000 0.00000 ; imides
7797 7798 7799 7800 3
7797 7798 7799 7801 3
7802 7798 7799 7800 3
7802 7798 7799 7801 3
7804 7805 7806 7807 3 33.20422 0.00000 -33.20422 0.00000 0.00000 0.00000 ; methylguanidinium ion
7804 7805 7806 7810 3 20.50160 0.00000 -20.50160 0.00000 0.00000 0.00000 ; imides
7805 7806 7807 7808 3
7805 7806 7807 7809 3
7810 7806 7807 7808 3
7810 7806 7807 7809 3
7812 7813 7814 7815 3 33.20422 0.00000 -33.20422 0.00000 0.00000 0.00000 ; methylguanidinium ion
7812 7813 7814 7819 3 20.50160 0.00000 -20.50160 0.00000 0.00000 0.00000 ; imides
7813 7814 7815 7816 3 25.47638 0.00000 -25.47638 0.00000 0.00000 0.00000 ; amides O-C(O)-N-C
7813 7814 7815 7817 3
7813 7814 7815 7818 3
7819 7814 7815 7816 3 20.50160 0.00000 -20.50160 0.00000 0.00000 0.00000 ; amides wlj 6/20/97
7819 7814 7815 7817 3
7819 7814 7815 7818 3
7821 7822 7823 7824 3 33.20422 0.00000 -33.20422 0.00000 0.00000 0.00000 ; methylguanidinium ion
7821 7822 7823 7827 3 20.50160 0.00000 -20.50160 0.00000 0.00000 0.00000 ; imides
7822 7823 7824 7825 3
7822 7823 7824 7826 3
7827 7823 7824 7825 3
7827 7823 7824 7826 3
7829 7830 7831 7832 3 33.20422 0.00000 -33.20422 0.00000 0.00000 0.00000 ; methylguanidinium ion
7829 7830 7831 7835 3 20.50160 0.00000 -20.50160 0.00000 0.00000 0.00000 ; imides
7830 7831 7832 7833 3
7830 7831 7832 7834 3
7835 7831 7832 7833 3
7835 7831 7832 7834 3
7837 7838 7839 7840 3 33.20422 0.00000 -33.20422 0.00000 0.00000 0.00000 ; methylguanidinium ion
7837 7838 7839 7843 3 20.50160 0.00000 -20.50160 0.00000 0.00000 0.00000 ; imides
7838 7839 7840 7841 3
7838 7839 7840 7842 3
7843 7839 7840 7841 3
7843 7839 7840 7842 3
7845 7846 7847 7848 3 33.20422 0.00000 -33.20422 0.00000 0.00000 0.00000 ; methylguanidinium ion
7845 7846 7847 7852 3 20.50160 0.00000 -20.50160 0.00000 0.00000 0.00000 ; imides
7846 7847 7848 7849 3 25.47638 0.00000 -25.47638 0.00000 0.00000 0.00000 ; amides O-C(O)-N-C
7846 7847 7848 7850 3
7846 7847 7848 7851 3
7852 7847 7848 7849 3 20.50160 0.00000 -20.50160 0.00000 0.00000 0.00000 ; amides wlj 6/20/97
7852 7847 7848 7850 3
7852 7847 7848 7851 3
7854 7855 7856 7857 3 33.20422 0.00000 -33.20422 0.00000 0.00000 0.00000 ; methylguanidinium ion
7854 7855 7856 7861 3 20.50160 0.00000 -20.50160 0.00000 0.00000 0.00000 ; imides
7855 7856 7857 7858 3 25.47638 0.00000 -25.47638 0.00000 0.00000 0.00000 ; amides O-C(O)-N-C
7855 7856 7857 7859 3
7855 7856 7857 7860 3
7861 7856 7857 7858 3 20.50160 0.00000 -20.50160 0.00000 0.00000 0.00000 ; amides wlj 6/20/97
7861 7856 7857 7859 3
7861 7856 7857 7860 3
7863 7864 7865 7866 3 33.20422 0.00000 -33.20422 0.00000 0.00000 0.00000 ; methylguanidinium ion
7863 7864 7865 7869 3 20.50160 0.00000 -20.50160 0.00000 0.00000 0.00000 ; imides
7864 7865 7866 7867 3
7864 7865 7866 7868 3
7869 7865 7866 7867 3
7869 7865 7866 7868 3
7871 7872 7873 7874 3 33.20422 0.00000 -33.20422 0.00000 0.00000 0.00000 ; methylguanidinium ion
7871 7872 7873 7877 3 20.50160 0.00000 -20.50160 0.00000 0.00000 0.00000 ; imides
7872 7873 7874 7875 3
7872 7873 7874 7876 3
7877 7873 7874 7875 3
7877 7873 7874 7876 3
7879 7880 7881 7882 3 33.20422 0.00000 -33.20422 0.00000 0.00000 0.00000 ; methylguanidinium ion
7879 7880 7881 7885 3 20.50160 0.00000 -20.50160 0.00000 0.00000 0.00000 ; imides
7880 7881 7882 7883 3
7880 7881 7882 7884 3
7885 7881 7882 7883 3
7885 7881 7882 7884 3
7887 7888 7889 7890 3 33.20422 0.00000 -33.20422 0.00000 0.00000 0.00000 ; methylguanidinium ion
7887 7888 7889 7893 3 20.50160 0.00000 -20.50160 0.00000 0.00000 0.00000 ; imides
7888 7889 7890 7891 3
7888 7889 7890 7892 3
7893 7889 7890 7891 3
7893 7889 7890 7892 3
7895 7896 7897 7898 3 33.20422 0.00000 -33.20422 0.00000 0.00000 0.00000 ; methylguanidinium ion
7895 7896 7897 7902 3 20.50160 0.00000 -20.50160 0.00000 0.00000 0.00000 ; imides
7896 7897 7898 7899 3 25.47638 0.00000 -25.47638 0.00000 0.00000 0.00000 ; amides O-C(O)-N-C
7896 7897 7898 7900 3
7896 7897 7898 7901 3
7902 7897 7898 7899 3 20.50160 0.00000 -20.50160 0.00000 0.00000 0.00000 ; amides wlj 6/20/97
7902 7897 7898 7900 3
7902 7897 7898 7901 3
7904 7905 7906 7907 3 33.20422 0.00000 -33.20422 0.00000 0.00000 0.00000 ; methylguanidinium ion
7904 7905 7906 7910 3 20.50160 0.00000 -20.50160 0.00000 0.00000 0.00000 ; imides
7905 7906 7907 7908 3
7905 7906 7907 7909 3
7910 7906 7907 7908 3
7910 7906 7907 7909 3
7912 7913 7914 7915 3 33.20422 0.00000 -33.20422 0.00000 0.00000 0.00000 ; methylguanidinium ion
7912 7913 7914 7919 3 20.50160 0.00000 -20.50160 0.00000 0.00000 0.00000 ; imides
7913 7914 7915 7916 3 25.47638 0.00000 -25.47638 0.00000 0.00000 0.00000 ; amides O-C(O)-N-C
7913 7914 7915 7917 3
7913 7914 7915 7918 3
7919 7914 7915 7916 3 20.50160 0.00000 -20.50160 0.00000 0.00000 0.00000 ; amides wlj 6/20/97
7919 7914 7915 7917 3
7919 7914 7915 7918 3
7921 7922 7923 7924 3 33.20422 0.00000 -33.20422 0.00000 0.00000 0.00000 ; methylguanidinium ion
7921 7922 7923 7928 3 20.50160 0.00000 -20.50160 0.00000 0.00000 0.00000 ; imides
7922 7923 7924 7925 3 25.47638 0.00000 -25.47638 0.00000 0.00000 0.00000 ; amides O-C(O)-N-C
7922 7923 7924 7926 3
7922 7923 7924 7927 3
7928 7923 7924 7925 3 20.50160 0.00000 -20.50160 0.00000 0.00000 0.00000 ; amides wlj 6/20/97
7928 7923 7924 7926 3
7928 7923 7924 7927 3
7930 7931 7932 7933 3 33.20422 0.00000 -33.20422 0.00000 0.00000 0.00000 ; methylguanidinium ion
7930 7931 7932 7936 3 20.50160 0.00000 -20.50160 0.00000 0.00000 0.00000 ; imides
7931 7932 7933 7934 3
7931 7932 7933 7935 3
7936 7932 7933 7934 3
7936 7932 7933 7935 3
7938 7939 7940 7941 3 33.20422 0.00000 -33.20422 0.00000 0.00000 0.00000 ; methylguanidinium ion
7938 7939 7940 7946 3 20.50160 0.00000 -20.50160 0.00000 0.00000 0.00000 ; imides
7939 7940 7941 7942 3 25.47638 0.00000 -25.47638 0.00000 0.00000 0.00000 ; amides O-C(O)-N-C
7939 7940 7941 7944 3
7939 7940 7941 7945 3
7940 7941 7942 7943 3 16.73600 4.18400 -20.92000 0.00000 0.00000 0.00000 ; carbamates
7944 7941 7942 7943 3
7945 7941 7942 7943 3
7946 7940 7941 7942 3 20.50160 0.00000 -20.50160 0.00000 0.00000 0.00000 ; amides wlj 6/20/97
7946 7940 7941 7944 3
7946 7940 7941 7945 3
7948 7949 7950 7951 3 33.20422 0.00000 -33.20422 0.00000 0.00000 0.00000 ; methylguanidinium ion
7948 7949 7950 7954 3 20.50160 0.00000 -20.50160 0.00000 0.00000 0.00000 ; imides
7949 7950 7951 7952 3
7949 7950 7951 7953 3
7954 7950 7951 7952 3
7954 7950 7951 7953 3
7956 7957 7958 7959 3 33.20422 0.00000 -33.20422 0.00000 0.00000 0.00000 ; methylguanidinium ion
7956 7957 7958 7963 3 20.50160 0.00000 -20.50160 0.00000 0.00000 0.00000 ; imides
7957 7958 7959 7960 3 25.47638 0.00000 -25.47638 0.00000 0.00000 0.00000 ; amides O-C(O)-N-C
7957 7958 7959 7961 3
7957 7958 7959 7962 3
7963 7958 7959 7960 3 20.50160 0.00000 -20.50160 0.00000 0.00000 0.00000 ; amides wlj 6/20/97
7963 7958 7959 7961 3
7963 7958 7959 7962 3
7965 7966 7967 7968 3 33.20422 0.00000 -33.20422 0.00000 0.00000 0.00000 ; methylguanidinium ion
7965 7966 7967 7973 3 20.50160 0.00000 -20.50160 0.00000 0.00000 0.00000 ; imides
7966 7967 7968 7969 3 25.47638 0.00000 -25.47638 0.00000 0.00000 0.00000 ; amides O-C(O)-N-C
7966 7967 7968 7971 3
7966 7967 7968 7972 3
7967 7968 7969 7970 3 16.73600 4.18400 -20.92000 0.00000 0.00000 0.00000 ; carbamates
7971 7968 7969 7970 3
7972 7968 7969 7970 3
7973 7967 7968 7969 3 20.50160 0.00000 -20.50160 0.00000 0.00000 0.00000 ; amides wlj 6/20/97
7973 7967 7968 7971 3
7973 7967 7968 7972 3
7975 7976 7977 7978 3 33.20422 0.00000 -33.20422 0.00000 0.00000 0.00000 ; methylguanidinium ion
7975 7976 7977 7982 3 20.50160 0.00000 -20.50160 0.00000 0.00000 0.00000 ; imides
7976 7977 7978 7979 3 25.47638 0.00000 -25.47638 0.00000 0.00000 0.00000 ; amides O-C(O)-N-C
7976 7977 7978 7980 3
7976 7977 7978 7981 3
7982 7977 7978 7979 3 20.50160 0.00000 -20.50160 0.00000 0.00000 0.00000 ; amides wlj 6/20/97
7982 7977 7978 7980 3
7982 7977 7978 7981 3
7984 7985 7986 7987 3 33.20422 0.00000 -33.20422 0.00000 0.00000 0.00000 ; methylguanidinium ion
7984 7985 7986 7992 3 20.50160 0.00000 -20.50160 0.00000 0.00000 0.00000 ; imides
7985 7986 7987 7988 3 25.47638 0.00000 -25.47638 0.00000 0.00000 0.00000 ; amides O-C(O)-N-C
7985 7986 7987 7990 3
7985 7986 7987 7991 3
7986 7987 7988 7989 3 16.73600 4.18400 -20.92000 0.00000 0.00000 0.00000 ; carbamates
7990 7987 7988 7989 3
7991 7987 7988 7989 3
7992 7986 7987 7988 3 20.50160 0.00000 -20.50160 0.00000 0.00000 0.00000 ; amides wlj 6/20/97
7992 7986 7987 7990 3
7992 7986 7987 7991 3
7994 7995 7996 7997 3 33.20422 0.00000 -33.20422 0.00000 0.00000 0.00000 ; methylguanidinium ion
7994 7995 7996 8001 3 20.50160 0.00000 -20.50160 0.00000 0.00000 0.00000 ; imides
7995 7996 7997 7998 3 25.47638 0.00000 -25.47638 0.00000 0.00000 0.00000 ; amides O-C(O)-N-C
7995 7996 7997 7999 3
7995 7996 7997 8000 3
8001 7996 7997 7998 3 20.50160 0.00000 -20.50160 0.00000 0.00000 0.00000 ; amides wlj 6/20/97
8001 7996 7997 7999 3
8001 7996 7997 8000 3
8003 8004 8005 8006 3 33.20422 0.00000 -33.20422 0.00000 0.00000 0.00000 ; methylguanidinium ion
8003 8004 8005 8009 3 20.50160 0.00000 -20.50160 0.00000 0.00000 0.00000 ; imides
8004 8005 8006 8007 3
8004 8005 8006 8008 3
8009 8005 8006 8007 3
8009 8005 8006 8008 3
8011 8012 8013 8014 3 33.20422 0.00000 -33.20422 0.00000 0.00000 0.00000 ; methylguanidinium ion
8011 8012 8013 8018 3 20.50160 0.00000 -20.50160 0.00000 0.00000 0.00000 ; imides
8012 8013 8014 8015 3 25.47638 0.00000 -25.47638 0.00000 0.00000 0.00000 ; amides O-C(O)-N-C
8012 8013 8014 8016 3
8012 8013 8014 8017 3
8018 8013 8014 8015 3 20.50160 0.00000 -20.50160 0.00000 0.00000 0.00000 ; amides wlj 6/20/97
8018 8013 8014 8016 3
8018 8013 8014 8017 3
8020 8021 8022 8023 3 33.20422 0.00000 -33.20422 0.00000 0.00000 0.00000 ; methylguanidinium ion
8020 8021 8022 8027 3 20.50160 0.00000 -20.50160 0.00000 0.00000 0.00000 ; imides
8021 8022 8023 8024 3 25.47638 0.00000 -25.47638 0.00000 0.00000 0.00000 ; amides O-C(O)-N-C
8021 8022 8023 8025 3
8021 8022 8023 8026 3
8027 8022 8023 8024 3 20.50160 0.00000 -20.50160 0.00000 0.00000 0.00000 ; amides wlj 6/20/97
8027 8022 8023 8025 3
8027 8022 8023 8026 3
8029 8030 8031 8032 3 33.20422 0.00000 -33.20422 0.00000 0.00000 0.00000 ; methylguanidinium ion
8029 8030 8031 8036 3 20.50160 0.00000 -20.50160 0.00000 0.00000 0.00000 ; imides
8030 8031 8032 8033 3 25.47638 0.00000 -25.47638 0.00000 0.00000 0.00000 ; amides O-C(O)-N-C
8030 8031 8032 8034 3
8030 8031 8032 8035 3
8036 8031 8032 8033 3 20.50160 0.00000 -20.50160 0.00000 0.00000 0.00000 ; amides wlj 6/20/97
8036 8031 8032 8034 3
8036 8031 8032 8035 3
8038 8039 8040 8041 3 33.20422 0.00000 -33.20422 0.00000 0.00000 0.00000 ; methylguanidinium ion
8038 8039 8040 8045 3 20.50160 0.00000 -20.50160 0.00000 0.00000 0.00000 ; imides
8039 8040 8041 8042 3 25.47638 0.00000 -25.47638 0.00000 0.00000 0.00000 ; amides O-C(O)-N-C
8039 8040 8041 8043 3
8039 8040 8041 8044 3
8045 8040 8041 8042 3 20.50160 0.00000 -20.50160 0.00000 0.00000 0.00000 ; amides wlj 6/20/97
8045 8040 8041 8043 3
8045 8040 8041 8044 3
8047 8048 8049 8050 3 33.20422 0.00000 -33.20422 0.00000 0.00000 0.00000 ; methylguanidinium ion
8047 8048 8049 8053 3 20.50160 0.00000 -20.50160 0.00000 0.00000 0.00000 ; imides
8048 8049 8050 8051 3
8048 8049 8050 8052 3
8053 8049 8050 8051 3
8053 8049 8050 8052 3
8055 8056 8057 8058 3 33.20422 0.00000 -33.20422 0.00000 0.00000 0.00000 ; methylguanidinium ion
8055 8056 8057 8061 3 20.50160 0.00000 -20.50160 0.00000 0.00000 0.00000 ; imides
8056 8057 8058 8059 3
8056 8057 8058 8060 3
8061 8057 8058 8059 3
8061 8057 8058 8060 3
8063 8064 8065 8066 3 33.20422 0.00000 -33.20422 0.00000 0.00000 0.00000 ; methylguanidinium ion
8063 8064 8065 8069 3 20.50160 0.00000 -20.50160 0.00000 0.00000 0.00000 ; imides
8064 8065 8066 8067 3
8064 8065 8066 8068 3
8069 8065 8066 8067 3
8069 8065 8066 8068 3
8071 8072 8073 8074 3 33.20422 0.00000 -33.20422 0.00000 0.00000 0.00000 ; methylguanidinium ion
8071 8072 8073 8078 3 20.50160 0.00000 -20.50160 0.00000 0.00000 0.00000 ; imides
8072 8073 8074 8075 3 25.47638 0.00000 -25.47638 0.00000 0.00000 0.00000 ; amides O-C(O)-N-C
8072 8073 8074 8076 3
8072 8073 8074 8077 3
8078 8073 8074 8075 3 20.50160 0.00000 -20.50160 0.00000 0.00000 0.00000 ; amides wlj 6/20/97
8078 8073 8074 8076 3
8078 8073 8074 8077 3
8080 8081 8082 8083 3 33.20422 0.00000 -33.20422 0.00000 0.00000 0.00000 ; methylguanidinium ion
8080 8081 8082 8086 3 20.50160 0.00000 -20.50160 0.00000 0.00000 0.00000 ; imides
8081 8082 8083 8084 3
8081 8082 8083 8085 3
8086 8082 8083 8084 3
8086 8082 8083 8085 3
8088 8089 8090 8091 3 33.20422 0.00000 -33.20422 0.00000 0.00000 0.00000 ; methylguanidinium ion
8088 8089 8090 8094 3 20.50160 0.00000 -20.50160 0.00000 0.00000 0.00000 ; imides
8089 8090 8091 8092 3
8089 8090 8091 8093 3
8094 8090 8091 8092 3
8094 8090 8091 8093 3
8096 8097 8098 8099 3 33.20422 0.00000 -33.20422 0.00000 0.00000 0.00000 ; methylguanidinium ion
8096 8097 8098 8103 3 20.50160 0.00000 -20.50160 0.00000 0.00000 0.00000 ; imides
8097 8098 8099 8100 3 25.47638 0.00000 -25.47638 0.00000 0.00000 0.00000 ; amides O-C(O)-N-C
8097 8098 8099 8101 3
8097 8098 8099 8102 3
8103 8098 8099 8100 3 20.50160 0.00000 -20.50160 0.00000 0.00000 0.00000 ; amides wlj 6/20/97
8103 8098 8099 8101 3
8103 8098 8099 8102 3
8105 8106 8107 8108 3 33.20422 0.00000 -33.20422 0.00000 0.00000 0.00000 ; methylguanidinium ion
8105 8106 8107 8112 3 20.50160 0.00000 -20.50160 0.00000 0.00000 0.00000 ; imides
8106 8107 8108 8109 3 25.47638 0.00000 -25.47638 0.00000 0.00000 0.00000 ; amides O-C(O)-N-C
8106 8107 8108 8110 3
8106 8107 8108 8111 3
8112 8107 8108 8109 3 20.50160 0.00000 -20.50160 0.00000 0.00000 0.00000 ; amides wlj 6/20/97
8112 8107 8108 8110 3
8112 8107 8108 8111 3
8114 8115 8116 8117 3 33.20422 0.00000 -33.20422 0.00000 0.00000 0.00000 ; methylguanidinium ion
8114 8115 8116 8121 3 20.50160 0.00000 -20.50160 0.00000 0.00000 0.00000 ; imides
8115 8116 8117 8118 3 25.47638 0.00000 -25.47638 0.00000 0.00000 0.00000 ; amides O-C(O)-N-C
8115 8116 8117 8119 3
8115 8116 8117 8120 3
8121 8116 8117 8118 3 20.50160 0.00000 -20.50160 0.00000 0.00000 0.00000 ; amides wlj 6/20/97
8121 8116 8117 8119 3
8121 8116 8117 8120 3
8123 8124 8125 8126 3 33.20422 0.00000 -33.20422 0.00000 0.00000 0.00000 ; methylguanidinium ion
8123 8124 8125 8131 3 20.50160 0.00000 -20.50160 0.00000 0.00000 0.00000 ; imides
8124 8125 8126 8127 3 25.47638 0.00000 -25.47638 0.00000 0.00000 0.00000 ; amides O-C(O)-N-C
8124 8125 8126 8129 3
8124 8125 8126 8130 3
8125 8126 8127 8128 3 16.73600 4.18400 -20.92000 0.00000 0.00000 0.00000 ; carbamates
8129 8126 8127 8128 3
8130 8126 8127 8128 3
8131 8125 8126 8127 3 20.50160 0.00000 -20.50160 0.00000 0.00000 0.00000 ; amides wlj 6/20/97
8131 8125 8126 8129 3
8131 8125 8126 8130 3
8133 8134 8135 8136 3 33.20422 0.00000 -33.20422 0.00000 0.00000 0.00000 ; methylguanidinium ion
8133 8134 8135 8139 3 20.50160 0.00000 -20.50160 0.00000 0.00000 0.00000 ; imides
8134 8135 8136 8137 3
8134 8135 8136 8138 3
8139 8135 8136 8137 3
8139 8135 8136 8138 3
8141 8142 8143 8144 3 33.20422 0.00000 -33.20422 0.00000 0.00000 0.00000 ; methylguanidinium ion
8141 8142 8143 8147 3 20.50160 0.00000 -20.50160 0.00000 0.00000 0.00000 ; imides
8142 8143 8144 8145 3
8142 8143 8144 8146 3
8147 8143 8144 8145 3
8147 8143 8144 8146 3
8149 8150 8151 8152 3 33.20422 0.00000 -33.20422 0.00000 0.00000 0.00000 ; methylguanidinium ion
8149 8150 8151 8156 3 20.50160 0.00000 -20.50160 0.00000 0.00000 0.00000 ; imides
8150 8151 8152 8153 3 25.47638 0.00000 -25.47638 0.00000 0.00000 0.00000 ; amides O-C(O)-N-C
8150 8151 8152 8154 3
8150 8151 8152 8155 3
8156 8151 8152 8153 3 20.50160 0.00000 -20.50160 0.00000 0.00000 0.00000 ; amides wlj 6/20/97
8156 8151 8152 8154 3
8156 8151 8152 8155 3
8158 8159 8160 8161 3 33.20422 0.00000 -33.20422 0.00000 0.00000 0.00000 ; methylguanidinium ion
8158 8159 8160 8164 3 20.50160 0.00000 -20.50160 0.00000 0.00000 0.00000 ; imides
8159 8160 8161 8162 3
8159 8160 8161 8163 3
8164 8160 8161 8162 3
8164 8160 8161 8163 3
8166 8167 8168 8169 3 33.20422 0.00000 -33.20422 0.00000 0.00000 0.00000 ; methylguanidinium ion
8166 8167 8168 8172 3 20.50160 0.00000 -20.50160 0.00000 0.00000 0.00000 ; imides
8167 8168 8169 8170 3
8167 8168 8169 8171 3
8172 8168 8169 8170 3
8172 8168 8169 8171 3
8174 8175 8176 8177 3 33.20422 0.00000 -33.20422 0.00000 0.00000 0.00000 ; methylguanidinium ion
8174 8175 8176 8180 3 20.50160 0.00000 -20.50160 0.00000 0.00000 0.00000 ; imides
8175 8176 8177 8178 3
8175 8176 8177 8179 3
8180 8176 8177 8178 3
8180 8176 8177 8179 3
8182 8183 8184 8185 3 33.20422 0.00000 -33.20422 0.00000 0.00000 0.00000 ; methylguanidinium ion
8182 8183 8184 8188 3 20.50160 0.00000 -20.50160 0.00000 0.00000 0.00000 ; imides
8183 8184 8185 8186 3
8183 8184 8185 8187 3
8188 8184 8185 8186 3
8188 8184 8185 8187 3
8190 8191 8192 8193 3 33.20422 0.00000 -33.20422 0.00000 0.00000 0.00000 ; methylguanidinium ion
8190 8191 8192 8196 3 20.50160 0.00000 -20.50160 0.00000 0.00000 0.00000 ; imides
8191 8192 8193 8194 3
8191 8192 8193 8195 3
8196 8192 8193 8194 3
8196 8192 8193 8195 3
8198 8199 8200 8201 3 33.20422 0.00000 -33.20422 0.00000 0.00000 0.00000 ; methylguanidinium ion
8198 8199 8200 8205 3 20.50160 0.00000 -20.50160 0.00000 0.00000 0.00000 ; imides
8199 8200 8201 8202 3 25.47638 0.00000 -25.47638 0.00000 0.00000 0.00000 ; amides O-C(O)-N-C
8199 8200 8201 8203 3
8199 8200 8201 8204 3
8205 8200 8201 8202 3 20.50160 0.00000 -20.50160 0.00000 0.00000 0.00000 ; amides wlj 6/20/97
8205 8200 8201 8203 3
8205 8200 8201 8204 3
8207 8208 8209 8210 3 33.20422 0.00000 -33.20422 0.00000 0.00000 0.00000 ; methylguanidinium ion
8207 8208 8209 8213 3 20.50160 0.00000 -20.50160 0.00000 0.00000 0.00000 ; imides
8208 8209 8210 8211 3
8208 8209 8210 8212 3
8213 8209 8210 8211 3
8213 8209 8210 8212 3
8215 8216 8217 8218 3 33.20422 0.00000 -33.20422 0.00000 0.00000 0.00000 ; methylguanidinium ion
8215 8216 8217 8222 3 20.50160 0.00000 -20.50160 0.00000 0.00000 0.00000 ; imides
8216 8217 8218 8219 3 25.47638 0.00000 -25.47638 0.00000 0.00000 0.00000 ; amides O-C(O)-N-C
8216 8217 8218 8220 3
8216 8217 8218 8221 3
8222 8217 8218 8219 3 20.50160 0.00000 -20.50160 0.00000 0.00000 0.00000 ; amides wlj 6/20/97
8222 8217 8218 8220 3
8222 8217 8218 8221 3
8224 8225 8226 8227 3 33.20422 0.00000 -33.20422 0.00000 0.00000 0.00000 ; methylguanidinium ion
8224 8225 8226 8231 3 20.50160 0.00000 -20.50160 0.00000 0.00000 0.00000 ; imides
8225 8226 8227 8228 3 25.47638 0.00000 -25.47638 0.00000 0.00000 0.00000 ; amides O-C(O)-N-C
8225 8226 8227 8229 3
8225 8226 8227 8230 3
8231 8226 8227 8228 3 20.50160 0.00000 -20.50160 0.00000 0.00000 0.00000 ; amides wlj 6/20/97
8231 8226 8227 8229 3
8231 8226 8227 8230 3
8233 8234 8235 8236 3 33.20422 0.00000 -33.20422 0.00000 0.00000 0.00000 ; methylguanidinium ion
8233 8234 8235 8240 3 20.50160 0.00000 -20.50160 0.00000 0.00000 0.00000 ; imides
8234 8235 8236 8237 3 25.47638 0.00000 -25.47638 0.00000 0.00000 0.00000 ; amides O-C(O)-N-C
8234 8235 8236 8238 3
8234 8235 8236 8239 3
8240 8235 8236 8237 3 20.50160 0.00000 -20.50160 0.00000 0.00000 0.00000 ; amides wlj 6/20/97
8240 8235 8236 8238 3
8240 8235 8236 8239 3
8242 8243 8244 8245 3 33.20422 0.00000 -33.20422 0.00000 0.00000 0.00000 ; methylguanidinium ion
8242 8243 8244 8249 3 20.50160 0.00000 -20.50160 0.00000 0.00000 0.00000 ; imides
8243 8244 8245 8246 3 25.47638 0.00000 -25.47638 0.00000 0.00000 0.00000 ; amides O-C(O)-N-C
8243 8244 8245 8247 3
8243 8244 8245 8248 3
8249 8244 8245 8246 3 20.50160 0.00000 -20.50160 0.00000 0.00000 0.00000 ; amides wlj 6/20/97
8249 8244 8245 8247 3
8249 8244 8245 8248 3
8251 8252 8253 8254 3 33.20422 0.00000 -33.20422 0.00000 0.00000 0.00000 ; methylguanidinium ion
8251 8252 8253 8257 3 20.50160 0.00000 -20.50160 0.00000 0.00000 0.00000 ; imides
8252 8253 8254 8255 3
8252 8253 8254 8256 3
8257 8253 8254 8255 3
8257 8253 8254 8256 3
8259 8260 8261 8262 3 33.20422 0.00000 -33.20422 0.00000 0.00000 0.00000 ; methylguanidinium ion
8259 8260 8261 8265 3 20.50160 0.00000 -20.50160 0.00000 0.00000 0.00000 ; imides
8260 8261 8262 8263 3
8260 8261 8262 8264 3
8265 8261 8262 8263 3
8265 8261 8262 8264 3
8267 8268 8269 8270 3 33.20422 0.00000 -33.20422 0.00000 0.00000 0.00000 ; methylguanidinium ion
8267 8268 8269 8274 3 20.50160 0.00000 -20.50160 0.00000 0.00000 0.00000 ; imides
8268 8269 8270 8271 3 25.47638 0.00000 -25.47638 0.00000 0.00000 0.00000 ; amides O-C(O)-N-C
8268 8269 8270 8272 3
8268 8269 8270 8273 3
8274 8269 8270 8271 3 20.50160 0.00000 -20.50160 0.00000 0.00000 0.00000 ; amides wlj 6/20/97
8274 8269 8270 8272 3
8274 8269 8270 8273 3
8276 8277 8278 8279 3 33.20422 0.00000 -33.20422 0.00000 0.00000 0.00000 ; methylguanidinium ion
8276 8277 8278 8283 3 20.50160 0.00000 -20.50160 0.00000 0.00000 0.00000 ; imides
8277 8278 8279 8280 3 25.47638 0.00000 -25.47638 0.00000 0.00000 0.00000 ; amides O-C(O)-N-C
8277 8278 8279 8281 3
8277 8278 8279 8282 3
8283 8278 8279 8280 3 20.50160 0.00000 -20.50160 0.00000 0.00000 0.00000 ; amides wlj 6/20/97
8283 8278 8279 8281 3
8283 8278 8279 8282 3
8285 8286 8287 8288 3 33.20422 0.00000 -33.20422 0.00000 0.00000 0.00000 ; methylguanidinium ion
8285 8286 8287 8291 3 20.50160 0.00000 -20.50160 0.00000 0.00000 0.00000 ; imides
8286 8287 8288 8289 3
8286 8287 8288 8290 3
8291 8287 8288 8289 3
8291 8287 8288 8290 3
8293 8294 8295 8296 3 33.20422 0.00000 -33.20422 0.00000 0.00000 0.00000 ; methylguanidinium ion
8293 8294 8295 8299 3 20.50160 0.00000 -20.50160 0.00000 0.00000 0.00000 ; imides
8294 8295 8296 8297 3
8294 8295 8296 8298 3
8299 8295 8296 8297 3
8299 8295 8296 8298 3
8301 8302 8303 8304 3 33.20422 0.00000 -33.20422 0.00000 0.00000 0.00000 ; methylguanidinium ion
8301 8302 8303 8309 3 20.50160 0.00000 -20.50160 0.00000 0.00000 0.00000 ; imides
8302 8303 8304 8305 3 25.47638 0.00000 -25.47638 0.00000 0.00000 0.00000 ; amides O-C(O)-N-C
8302 8303 8304 8307 3
8302 8303 8304 8308 3
8303 8304 8305 8306 3 16.73600 4.18400 -20.92000 0.00000 0.00000 0.00000 ; carbamates
8307 8304 8305 8306 3
8308 8304 8305 8306 3
8309 8303 8304 8305 3 20.50160 0.00000 -20.50160 0.00000 0.00000 0.00000 ; amides wlj 6/20/97
8309 8303 8304 8307 3
8309 8303 8304 8308 3
8311 8312 8313 8314 3 33.20422 0.00000 -33.20422 0.00000 0.00000 0.00000 ; methylguanidinium ion
8311 8312 8313 8317 3 20.50160 0.00000 -20.50160 0.00000 0.00000 0.00000 ; imides
8312 8313 8314 8315 3
8312 8313 8314 8316 3
8317 8313 8314 8315 3
8317 8313 8314 8316 3
8319 8320 8321 8322 3 33.20422 0.00000 -33.20422 0.00000 0.00000 0.00000 ; methylguanidinium ion
8319 8320 8321 8325 3 20.50160 0.00000 -20.50160 0.00000 0.00000 0.00000 ; imides
8320 8321 8322 8323 3
8320 8321 8322 8324 3
8325 8321 8322 8323 3
8325 8321 8322 8324 3
8327 8328 8329 8330 3 33.20422 0.00000 -33.20422 0.00000 0.00000 0.00000 ; methylguanidinium ion
8327 8328 8329 8333 3 20.50160 0.00000 -20.50160 0.00000 0.00000 0.00000 ; imides
8328 8329 8330 8331 3
8328 8329 8330 8332 3
8333 8329 8330 8331 3
8333 8329 8330 8332 3
8335 8336 8337 8338 3 33.20422 0.00000 -33.20422 0.00000 0.00000 0.00000 ; methylguanidinium ion
8335 8336 8337 8341 3 20.50160 0.00000 -20.50160 0.00000 0.00000 0.00000 ; imides
8336 8337 8338 8339 3
8336 8337 8338 8340 3
8341 8337 8338 8339 3
8341 8337 8338 8340 3
8343 8344 8345 8346 3 33.20422 0.00000 -33.20422 0.00000 0.00000 0.00000 ; methylguanidinium ion
8343 8344 8345 8349 3 20.50160 0.00000 -20.50160 0.00000 0.00000 0.00000 ; imides
8344 8345 8346 8347 3
8344 8345 8346 8348 3
8349 8345 8346 8347 3
8349 8345 8346 8348 3
8351 8352 8353 8354 3 33.20422 0.00000 -33.20422 0.00000 0.00000 0.00000 ; methylguanidinium ion
8351 8352 8353 8357 3 20.50160 0.00000 -20.50160 0.00000 0.00000 0.00000 ; imides
8352 8353 8354 8355 3
8352 8353 8354 8356 3
8357 8353 8354 8355 3
8357 8353 8354 8356 3
8359 8360 8361 8362 3 33.20422 0.00000 -33.20422 0.00000 0.00000 0.00000 ; methylguanidinium ion
8359 8360 8361 8365 3 20.50160 0.00000 -20.50160 0.00000 0.00000 0.00000 ; imides
8360 8361 8362 8363 3
8360 8361 8362 8364 3
8365 8361 8362 8363 3
8365 8361 8362 8364 3
8367 8368 8369 8370 3 33.20422 0.00000 -33.20422 0.00000 0.00000 0.00000 ; methylguanidinium ion
8367 8368 8369 8374 3 20.50160 0.00000 -20.50160 0.00000 0.00000 0.00000 ; imides
8368 8369 8370 8371 3 25.47638 0.00000 -25.47638 0.00000 0.00000 0.00000 ; amides O-C(O)-N-C
8368 8369 8370 8372 3
8368 8369 8370 8373 3
8374 8369 8370 8371 3 20.50160 0.00000 -20.50160 0.00000 0.00000 0.00000 ; amides wlj 6/20/97
8374 8369 8370 8372 3
8374 8369 8370 8373 3
8376 8377 8378 8379 3 33.20422 0.00000 -33.20422 0.00000 0.00000 0.00000 ; methylguanidinium ion
8376 8377 8378 8383 3 20.50160 0.00000 -20.50160 0.00000 0.00000 0.00000 ; imides
8377 8378 8379 8380 3 25.47638 0.00000 -25.47638 0.00000 0.00000 0.00000 ; amides O-C(O)-N-C
8377 8378 8379 8381 3
8377 8378 8379 8382 3
8383 8378 8379 8380 3 20.50160 0.00000 -20.50160 0.00000 0.00000 0.00000 ; amides wlj 6/20/97
8383 8378 8379 8381 3
8383 8378 8379 8382 3
8385 8386 8387 8388 3 33.20422 0.00000 -33.20422 0.00000 0.00000 0.00000 ; methylguanidinium ion
8385 8386 8387 8391 3 20.50160 0.00000 -20.50160 0.00000 0.00000 0.00000 ; imides
8386 8387 8388 8389 3
8386 8387 8388 8390 3
8391 8387 8388 8389 3
8391 8387 8388 8390 3
8393 8394 8395 8396 3 33.20422 0.00000 -33.20422 0.00000 0.00000 0.00000 ; methylguanidinium ion
8393 8394 8395 8399 3 20.50160 0.00000 -20.50160 0.00000 0.00000 0.00000 ; imides
8394 8395 8396 8397 3
8394 8395 8396 8398 3
8399 8395 8396 8397 3
8399 8395 8396 8398 3
8401 8402 8403 8404 3 33.20422 0.00000 -33.20422 0.00000 0.00000 0.00000 ; methylguanidinium ion
8401 8402 8403 8408 3 20.50160 0.00000 -20.50160 0.00000 0.00000 0.00000 ; imides
8402 8403 8404 8405 3 25.47638 0.00000 -25.47638 0.00000 0.00000 0.00000 ; amides O-C(O)-N-C
8402 8403 8404 8406 3
8402 8403 8404 8407 3
8408 8403 8404 8405 3 20.50160 0.00000 -20.50160 0.00000 0.00000 0.00000 ; amides wlj 6/20/97
8408 8403 8404 8406 3
8408 8403 8404 8407 3
8410 8411 8412 8413 3 33.20422 0.00000 -33.20422 0.00000 0.00000 0.00000 ; methylguanidinium ion
8410 8411 8412 8417 3 20.50160 0.00000 -20.50160 0.00000 0.00000 0.00000 ; imides
8411 8412 8413 8414 3 25.47638 0.00000 -25.47638 0.00000 0.00000 0.00000 ; amides O-C(O)-N-C
8411 8412 8413 8415 3
8411 8412 8413 8416 3
8417 8412 8413 8414 3 20.50160 0.00000 -20.50160 0.00000 0.00000 0.00000 ; amides wlj 6/20/97
8417 8412 8413 8415 3
8417 8412 8413 8416 3
8419 8420 8421 8422 3 33.20422 0.00000 -33.20422 0.00000 0.00000 0.00000 ; methylguanidinium ion
8419 8420 8421 8426 3 20.50160 0.00000 -20.50160 0.00000 0.00000 0.00000 ; imides
8420 8421 8422 8423 3 25.47638 0.00000 -25.47638 0.00000 0.00000 0.00000 ; amides O-C(O)-N-C
8420 8421 8422 8424 3
8420 8421 8422 8425 3
8426 8421 8422 8423 3 20.50160 0.00000 -20.50160 0.00000 0.00000 0.00000 ; amides wlj 6/20/97
8426 8421 8422 8424 3
8426 8421 8422 8425 3
8428 8429 8430 8431 3 33.20422 0.00000 -33.20422 0.00000 0.00000 0.00000 ; methylguanidinium ion
8428 8429 8430 8434 3 20.50160 0.00000 -20.50160 0.00000 0.00000 0.00000 ; imides
8429 8430 8431 8432 3
8429 8430 8431 8433 3
8434 8430 8431 8432 3
8434 8430 8431 8433 3
8436 8437 8438 8439 3 33.20422 0.00000 -33.20422 0.00000 0.00000 0.00000 ; methylguanidinium ion
8436 8437 8438 8442 3 20.50160 0.00000 -20.50160 0.00000 0.00000 0.00000 ; imides
8437 8438 8439 8440 3
8437 8438 8439 8441 3
8442 8438 8439 8440 3
8442 8438 8439 8441 3
8444 8445 8446 8447 3 33.20422 0.00000 -33.20422 0.00000 0.00000 0.00000 ; methylguanidinium ion
8444 8445 8446 8452 3 20.50160 0.00000 -20.50160 0.00000 0.00000 0.00000 ; imides
8445 8446 8447 8448 3 25.47638 0.00000 -25.47638 0.00000 0.00000 0.00000 ; amides O-C(O)-N-C
8445 8446 8447 8450 3
8445 8446 8447 8451 3
8446 8447 8448 8449 3 16.73600 4.18400 -20.92000 0.00000 0.00000 0.00000 ; carbamates
8450 8447 8448 8449 3
8451 8447 8448 8449 3
8452 8446 8447 8448 3 20.50160 0.00000 -20.50160 0.00000 0.00000 0.00000 ; amides wlj 6/20/97
8452 8446 8447 8450 3
8452 8446 8447 8451 3
8454 8455 8456 8457 3 33.20422 0.00000 -33.20422 0.00000 0.00000 0.00000 ; methylguanidinium ion
8454 8455 8456 8460 3 20.50160 0.00000 -20.50160 0.00000 0.00000 0.00000 ; imides
8455 8456 8457 8458 3
8455 8456 8457 8459 3
8460 8456 8457 8458 3
8460 8456 8457 8459 3
8462 8463 8464 8465 3 33.20422 0.00000 -33.20422 0.00000 0.00000 0.00000 ; methylguanidinium ion
8462 8463 8464 8468 3 20.50160 0.00000 -20.50160 0.00000 0.00000 0.00000 ; imides
8463 8464 8465 8466 3
8463 8464 8465 8467 3
8468 8464 8465 8466 3
8468 8464 8465 8467 3
8470 8471 8472 8473 3 33.20422 0.00000 -33.20422 0.00000 0.00000 0.00000 ; methylguanidinium ion
8470 8471 8472 8476 3 20.50160 0.00000 -20.50160 0.00000 0.00000 0.00000 ; imides
8471 8472 8473 8474 3
8471 8472 8473 8475 3
8476 8472 8473 8474 3
8476 8472 8473 8475 3
8478 8479 8480 8481 3 33.20422 0.00000 -33.20422 0.00000 0.00000 0.00000 ; methylguanidinium ion
8478 8479 8480 8485 3 20.50160 0.00000 -20.50160 0.00000 0.00000 0.00000 ; imides
8479 8480 8481 8482 3 25.47638 0.00000 -25.47638 0.00000 0.00000 0.00000 ; amides O-C(O)-N-C
8479 8480 8481 8483 3
8479 8480 8481 8484 3
8485 8480 8481 8482 3 20.50160 0.00000 -20.50160 0.00000 0.00000 0.00000 ; amides wlj 6/20/97
8485 8480 8481 8483 3
8485 8480 8481 8484 3
8487 8488 8489 8490 3 33.20422 0.00000 -33.20422 0.00000 0.00000 0.00000 ; methylguanidinium ion
8487 8488 8489 8494 3 20.50160 0.00000 -20.50160 0.00000 0.00000 0.00000 ; imides
8488 8489 8490 8491 3 25.47638 0.00000 -25.47638 0.00000 0.00000 0.00000 ; amides O-C(O)-N-C
8488 8489 8490 8492 3
8488 8489 8490 8493 3
8494 8489 8490 8491 3 20.50160 0.00000 -20.50160 0.00000 0.00000 0.00000 ; amides wlj 6/20/97
8494 8489 8490 8492 3
8494 8489 8490 8493 3
8496 8497 8498 8499 3 33.20422 0.00000 -33.20422 0.00000 0.00000 0.00000 ; methylguanidinium ion
8496 8497 8498 8502 3 20.50160 0.00000 -20.50160 0.00000 0.00000 0.00000 ; imides
8497 8498 8499 8500 3
8497 8498 8499 8501 3
8502 8498 8499 8500 3
8502 8498 8499 8501 3
8504 8505 8506 8507 3 33.20422 0.00000 -33.20422 0.00000 0.00000 0.00000 ; methylguanidinium ion
8504 8505 8506 8510 3 20.50160 0.00000 -20.50160 0.00000 0.00000 0.00000 ; imides
8505 8506 8507 8508 3
8505 8506 8507 8509 3
8510 8506 8507 8508 3
8510 8506 8507 8509 3
8512 8513 8514 8515 3 33.20422 0.00000 -33.20422 0.00000 0.00000 0.00000 ; methylguanidinium ion
8512 8513 8514 8518 3 20.50160 0.00000 -20.50160 0.00000 0.00000 0.00000 ; imides
8513 8514 8515 8516 3
8513 8514 8515 8517 3
8518 8514 8515 8516 3
8518 8514 8515 8517 3
8520 8521 8522 8523 3 33.20422 0.00000 -33.20422 0.00000 0.00000 0.00000 ; methylguanidinium ion
8520 8521 8522 8526 3 20.50160 0.00000 -20.50160 0.00000 0.00000 0.00000 ; imides
8521 8522 8523 8524 3
8521 8522 8523 8525 3
8526 8522 8523 8524 3
8526 8522 8523 8525 3
8528 8529 8530 8531 3 33.20422 0.00000 -33.20422 0.00000 0.00000 0.00000 ; methylguanidinium ion
8528 8529 8530 8535 3 20.50160 0.00000 -20.50160 0.00000 0.00000 0.00000 ; imides
8529 8530 8531 8532 3 25.47638 0.00000 -25.47638 0.00000 0.00000 0.00000 ; amides O-C(O)-N-C
8529 8530 8531 8533 3
8529 8530 8531 8534 3
8535 8530 8531 8532 3 20.50160 0.00000 -20.50160 0.00000 0.00000 0.00000 ; amides wlj 6/20/97
8535 8530 8531 8533 3
8535 8530 8531 8534 3
8537 8538 8539 8540 3 33.20422 0.00000 -33.20422 0.00000 0.00000 0.00000 ; methylguanidinium ion
8537 8538 8539 8544 3 20.50160 0.00000 -20.50160 0.00000 0.00000 0.00000 ; imides
8538 8539 8540 8541 3 25.47638 0.00000 -25.47638 0.00000 0.00000 0.00000 ; amides O-C(O)-N-C
8538 8539 8540 8542 3
8538 8539 8540 8543 3
8544 8539 8540 8541 3 20.50160 0.00000 -20.50160 0.00000 0.00000 0.00000 ; amides wlj 6/20/97
8544 8539 8540 8542 3
8544 8539 8540 8543 3
8546 8547 8548 8549 3 33.20422 0.00000 -33.20422 0.00000 0.00000 0.00000 ; methylguanidinium ion
8546 8547 8548 8552 3 20.50160 0.00000 -20.50160 0.00000 0.00000 0.00000 ; imides
8547 8548 8549 8550 3
8547 8548 8549 8551 3
8552 8548 8549 8550 3
8552 8548 8549 8551 3
8554 8555 8556 8557 3 33.20422 0.00000 -33.20422 0.00000 0.00000 0.00000 ; methylguanidinium ion
8554 8555 8556 8561 3 20.50160 0.00000 -20.50160 0.00000 0.00000 0.00000 ; imides
8555 8556 8557 8558 3 25.47638 0.00000 -25.47638 0.00000 0.00000 0.00000 ; amides O-C(O)-N-C
8555 8556 8557 8559 3
8555 8556 8557 8560 3
8561 8556 8557 8558 3 20.50160 0.00000 -20.50160 0.00000 0.00000 0.00000 ; amides wlj 6/20/97
8561 8556 8557 8559 3
8561 8556 8557 8560 3
8563 8564 8565 8566 3 33.20422 0.00000 -33.20422 0.00000 0.00000 0.00000 ; methylguanidinium ion
8563 8564 8565 8569 3 20.50160 0.00000 -20.50160 0.00000 0.00000 0.00000 ; imides
8564 8565 8566 8567 3
8564 8565 8566 8568 3
8569 8565 8566 8567 3
8569 8565 8566 8568 3
8571 8572 8573 8574 3 33.20422 0.00000 -33.20422 0.00000 0.00000 0.00000 ; methylguanidinium ion
8571 8572 8573 8578 3 20.50160 0.00000 -20.50160 0.00000 0.00000 0.00000 ; imides
8572 8573 8574 8575 3 25.47638 0.00000 -25.47638 0.00000 0.00000 0.00000 ; amides O-C(O)-N-C
8572 8573 8574 8576 3
8572 8573 8574 8577 3
8578 8573 8574 8575 3 20.50160 0.00000 -20.50160 0.00000 0.00000 0.00000 ; amides wlj 6/20/97
8578 8573 8574 8576 3
8578 8573 8574 8577 3
8580 8581 8582 8583 3 33.20422 0.00000 -33.20422 0.00000 0.00000 0.00000 ; methylguanidinium ion
8580 8581 8582 8586 3 20.50160 0.00000 -20.50160 0.00000 0.00000 0.00000 ; imides
8581 8582 8583 8584 3
8581 8582 8583 8585 3
8586 8582 8583 8584 3
8586 8582 8583 8585 3
8588 8589 8590 8591 3 33.20422 0.00000 -33.20422 0.00000 0.00000 0.00000 ; methylguanidinium ion
8588 8589 8590 8594 3 20.50160 0.00000 -20.50160 0.00000 0.00000 0.00000 ; imides
8589 8590 8591 8592 3
8589 8590 8591 8593 3
8594 8590 8591 8592 3
8594 8590 8591 8593 3
8596 8597 8598 8599 3 33.20422 0.00000 -33.20422 0.00000 0.00000 0.00000 ; methylguanidinium ion
8596 8597 8598 8602 3 20.50160 0.00000 -20.50160 0.00000 0.00000 0.00000 ; imides
8597 8598 8599 8600 3
8597 8598 8599 8601 3
8602 8598 8599 8600 3
8602 8598 8599 8601 3
8604 8605 8606 8607 3 33.20422 0.00000 -33.20422 0.00000 0.00000 0.00000 ; methylguanidinium ion
8604 8605 8606 8611 3 20.50160 0.00000 -20.50160 0.00000 0.00000 0.00000 ; imides
8605 8606 8607 8608 3 25.47638 0.00000 -25.47638 0.00000 0.00000 0.00000 ; amides O-C(O)-N-C
8605 8606 8607 8609 3
8605 8606 8607 8610 3
8611 8606 8607 8608 3 20.50160 0.00000 -20.50160 0.00000 0.00000 0.00000 ; amides wlj 6/20/97
8611 8606 8607 8609 3
8611 8606 8607 8610 3
8613 8614 8615 8616 3 33.20422 0.00000 -33.20422 0.00000 0.00000 0.00000 ; methylguanidinium ion
8613 8614 8615 8620 3 20.50160 0.00000 -20.50160 0.00000 0.00000 0.00000 ; imides
8614 8615 8616 8617 3 25.47638 0.00000 -25.47638 0.00000 0.00000 0.00000 ; amides O-C(O)-N-C
8614 8615 8616 8618 3
8614 8615 8616 8619 3
8620 8615 8616 8617 3 20.50160 0.00000 -20.50160 0.00000 0.00000 0.00000 ; amides wlj 6/20/97
8620 8615 8616 8618 3
8620 8615 8616 8619 3
8622 8623 8624 8625 3 33.20422 0.00000 -33.20422 0.00000 0.00000 0.00000 ; methylguanidinium ion
8622 8623 8624 8629 3 20.50160 0.00000 -20.50160 0.00000 0.00000 0.00000 ; imides
8623 8624 8625 8626 3 25.47638 0.00000 -25.47638 0.00000 0.00000 0.00000 ; amides O-C(O)-N-C
8623 8624 8625 8627 3
8623 8624 8625 8628 3
8629 8624 8625 8626 3 20.50160 0.00000 -20.50160 0.00000 0.00000 0.00000 ; amides wlj 6/20/97
8629 8624 8625 8627 3
8629 8624 8625 8628 3
8631 8632 8633 8634 3 33.20422 0.00000 -33.20422 0.00000 0.00000 0.00000 ; methylguanidinium ion
8631 8632 8633 8637 3 20.50160 0.00000 -20.50160 0.00000 0.00000 0.00000 ; imides
8632 8633 8634 8635 3
8632 8633 8634 8636 3
8637 8633 8634 8635 3
8637 8633 8634 8636 3
8639 8640 8641 8642 3 33.20422 0.00000 -33.20422 0.00000 0.00000 0.00000 ; methylguanidinium ion
8639 8640 8641 8645 3 20.50160 0.00000 -20.50160 0.00000 0.00000 0.00000 ; imides
8640 8641 8642 8643 3
8640 8641 8642 8644 3
8645 8641 8642 8643 3
8645 8641 8642 8644 3
8647 8648 8649 8650 3 33.20422 0.00000 -33.20422 0.00000 0.00000 0.00000 ; methylguanidinium ion
8647 8648 8649 8653 3 20.50160 0.00000 -20.50160 0.00000 0.00000 0.00000 ; imides
8648 8649 8650 8651 3
8648 8649 8650 8652 3
8653 8649 8650 8651 3
8653 8649 8650 8652 3
8655 8656 8657 8658 3 33.20422 0.00000 -33.20422 0.00000 0.00000 0.00000 ; methylguanidinium ion
8655 8656 8657 8661 3 20.50160 0.00000 -20.50160 0.00000 0.00000 0.00000 ; imides
8656 8657 8658 8659 3
8656 8657 8658 8660 3
8661 8657 8658 8659 3
8661 8657 8658 8660 3
8663 8664 8665 8666 3 33.20422 0.00000 -33.20422 0.00000 0.00000 0.00000 ; methylguanidinium ion
8663 8664 8665 8669 3 20.50160 0.00000 -20.50160 0.00000 0.00000 0.00000 ; imides
8664 8665 8666 8667 3
8664 8665 8666 8668 3
8669 8665 8666 8667 3
8669 8665 8666 8668 3
8671 8672 8673 8674 3 33.20422 0.00000 -33.20422 0.00000 0.00000 0.00000 ; methylguanidinium ion
8671 8672 8673 8677 3 20.50160 0.00000 -20.50160 0.00000 0.00000 0.00000 ; imides
8672 8673 8674 8675 3
8672 8673 8674 8676 3
8677 8673 8674 8675 3
8677 8673 8674 8676 3
8679 8680 8681 8682 3 33.20422 0.00000 -33.20422 0.00000 0.00000 0.00000 ; methylguanidinium ion
8679 8680 8681 8686 3 20.50160 0.00000 -20.50160 0.00000 0.00000 0.00000 ; imides
8680 8681 8682 8683 3 25.47638 0.00000 -25.47638 0.00000 0.00000 0.00000 ; amides O-C(O)-N-C
8680 8681 8682 8684 3
8680 8681 8682 8685 3
8686 8681 8682 8683 3 20.50160 0.00000 -20.50160 0.00000 0.00000 0.00000 ; amides wlj 6/20/97
8686 8681 8682 8684 3
8686 8681 8682 8685 3
8688 8689 8690 8691 3 33.20422 0.00000 -33.20422 0.00000 0.00000 0.00000 ; methylguanidinium ion
8688 8689 8690 8694 3 20.50160 0.00000 -20.50160 0.00000 0.00000 0.00000 ; imides
8689 8690 8691 8692 3
8689 8690 8691 8693 3
8694 8690 8691 8692 3
8694 8690 8691 8693 3
8696 8697 8698 8699 3 33.20422 0.00000 -33.20422 0.00000 0.00000 0.00000 ; methylguanidinium ion
8696 8697 8698 8702 3 20.50160 0.00000 -20.50160 0.00000 0.00000 0.00000 ; imides
8697 8698 8699 8700 3
8697 8698 8699 8701 3
8702 8698 8699 8700 3
8702 8698 8699 8701 3
8704 8705 8706 8707 3 33.20422 0.00000 -33.20422 0.00000 0.00000 0.00000 ; methylguanidinium ion
8704 8705 8706 8712 3 20.50160 0.00000 -20.50160 0.00000 0.00000 0.00000 ; imides
8705 8706 8707 8708 3 25.47638 0.00000 -25.47638 0.00000 0.00000 0.00000 ; amides O-C(O)-N-C
8705 8706 8707 8710 3
8705 8706 8707 8711 3
8706 8707 8708 8709 3 16.73600 4.18400 -20.92000 0.00000 0.00000 0.00000 ; carbamates
8710 8707 8708 8709 3
8711 8707 8708 8709 3
8712 8706 8707 8708 3 20.50160 0.00000 -20.50160 0.00000 0.00000 0.00000 ; amides wlj 6/20/97
8712 8706 8707 8710 3
8712 8706 8707 8711 3
8714 8715 8716 8717 3 33.20422 0.00000 -33.20422 0.00000 0.00000 0.00000 ; methylguanidinium ion
8714 8715 8716 8720 3 20.50160 0.00000 -20.50160 0.00000 0.00000 0.00000 ; imides
8715 8716 8717 8718 3
8715 8716 8717 8719 3
8720 8716 8717 8718 3
8720 8716 8717 8719 3
8722 8723 8724 8725 3 33.20422 0.00000 -33.20422 0.00000 0.00000 0.00000 ; methylguanidinium ion
8722 8723 8724 8728 3 20.50160 0.00000 -20.50160 0.00000 0.00000 0.00000 ; imides
8723 8724 8725 8726 3
8723 8724 8725 8727 3
8728 8724 8725 8726 3
8728 8724 8725 8727 3
8730 8731 8732 8733 3 33.20422 0.00000 -33.20422 0.00000 0.00000 0.00000 ; methylguanidinium ion
8730 8731 8732 8736 3 20.50160 0.00000 -20.50160 0.00000 0.00000 0.00000 ; imides
8731 8732 8733 8734 3
8731 8732 8733 8735 3
8736 8732 8733 8734 3
8736 8732 8733 8735 3
8738 8739 8740 8741 3 33.20422 0.00000 -33.20422 0.00000 0.00000 0.00000 ; methylguanidinium ion
8738 8739 8740 8745 3 20.50160 0.00000 -20.50160 0.00000 0.00000 0.00000 ; imides
8739 8740 8741 8742 3 25.47638 0.00000 -25.47638 0.00000 0.00000 0.00000 ; amides O-C(O)-N-C
8739 8740 8741 8743 3
8739 8740 8741 8744 3
8745 8740 8741 8742 3 20.50160 0.00000 -20.50160 0.00000 0.00000 0.00000 ; amides wlj 6/20/97
8745 8740 8741 8743 3
8745 8740 8741 8744 3
8747 8748 8749 8750 3 33.20422 0.00000 -33.20422 0.00000 0.00000 0.00000 ; methylguanidinium ion
8747 8748 8749 8754 3 20.50160 0.00000 -20.50160 0.00000 0.00000 0.00000 ; imides
8748 8749 8750 8751 3 25.47638 0.00000 -25.47638 0.00000 0.00000 0.00000 ; amides O-C(O)-N-C
8748 8749 8750 8752 3
8748 8749 8750 8753 3
8754 8749 8750 8751 3 20.50160 0.00000 -20.50160 0.00000 0.00000 0.00000 ; amides wlj 6/20/97
8754 8749 8750 8752 3
8754 8749 8750 8753 3
8756 8757 8758 8759 3 33.20422 0.00000 -33.20422 0.00000 0.00000 0.00000 ; methylguanidinium ion
8756 8757 8758 8763 3 20.50160 0.00000 -20.50160 0.00000 0.00000 0.00000 ; imides
8757 8758 8759 8760 3 25.47638 0.00000 -25.47638 0.00000 0.00000 0.00000 ; amides O-C(O)-N-C
8757 8758 8759 8761 3
8757 8758 8759 8762 3
8763 8758 8759 8760 3 20.50160 0.00000 -20.50160 0.00000 0.00000 0.00000 ; amides wlj 6/20/97
8763 8758 8759 8761 3
8763 8758 8759 8762 3
8765 8766 8767 8768 3 33.20422 0.00000 -33.20422 0.00000 0.00000 0.00000 ; methylguanidinium ion
8765 8766 8767 8772 3 20.50160 0.00000 -20.50160 0.00000 0.00000 0.00000 ; imides
8766 8767 8768 8769 3 25.47638 0.00000 -25.47638 0.00000 0.00000 0.00000 ; amides O-C(O)-N-C
8766 8767 8768 8770 3
8766 8767 8768 8771 3
8772 8767 8768 8769 3 20.50160 0.00000 -20.50160 0.00000 0.00000 0.00000 ; amides wlj 6/20/97
8772 8767 8768 8770 3
8772 8767 8768 8771 3
8774 8775 8776 8777 3 33.20422 0.00000 -33.20422 0.00000 0.00000 0.00000 ; methylguanidinium ion
8774 8775 8776 8780 3 20.50160 0.00000 -20.50160 0.00000 0.00000 0.00000 ; imides
8775 8776 8777 8778 3
8775 8776 8777 8779 3
8780 8776 8777 8778 3
8780 8776 8777 8779 3
8782 8783 8784 8785 3 33.20422 0.00000 -33.20422 0.00000 0.00000 0.00000 ; methylguanidinium ion
8782 8783 8784 8789 3 20.50160 0.00000 -20.50160 0.00000 0.00000 0.00000 ; imides
8783 8784 8785 8786 3 25.47638 0.00000 -25.47638 0.00000 0.00000 0.00000 ; amides O-C(O)-N-C
8783 8784 8785 8787 3
8783 8784 8785 8788 3
8789 8784 8785 8786 3 20.50160 0.00000 -20.50160 0.00000 0.00000 0.00000 ; amides wlj 6/20/97
8789 8784 8785 8787 3
8789 8784 8785 8788 3
8791 8792 8793 8794 3 33.20422 0.00000 -33.20422 0.00000 0.00000 0.00000 ; methylguanidinium ion
8791 8792 8793 8797 3 20.50160 0.00000 -20.50160 0.00000 0.00000 0.00000 ; imides
8792 8793 8794 8795 3
8792 8793 8794 8796 3
8797 8793 8794 8795 3
8797 8793 8794 8796 3
8799 8800 8801 8802 3 33.20422 0.00000 -33.20422 0.00000 0.00000 0.00000 ; methylguanidinium ion
8799 8800 8801 8806 3 20.50160 0.00000 -20.50160 0.00000 0.00000 0.00000 ; imides
8800 8801 8802 8803 3 25.47638 0.00000 -25.47638 0.00000 0.00000 0.00000 ; amides O-C(O)-N-C
8800 8801 8802 8804 3
8800 8801 8802 8805 3
8806 8801 8802 8803 3 20.50160 0.00000 -20.50160 0.00000 0.00000 0.00000 ; amides wlj 6/20/97
8806 8801 8802 8804 3
8806 8801 8802 8805 3
8808 8809 8810 8811 3 33.20422 0.00000 -33.20422 0.00000 0.00000 0.00000 ; methylguanidinium ion
8808 8809 8810 8814 3 20.50160 0.00000 -20.50160 0.00000 0.00000 0.00000 ; imides
8809 8810 8811 8812 3
8809 8810 8811 8813 3
8814 8810 8811 8812 3
8814 8810 8811 8813 3
8816 8817 8818 8819 3 33.20422 0.00000 -33.20422 0.00000 0.00000 0.00000 ; methylguanidinium ion
8816 8817 8818 8823 3 20.50160 0.00000 -20.50160 0.00000 0.00000 0.00000 ; imides
8817 8818 8819 8820 3 25.47638 0.00000 -25.47638 0.00000 0.00000 0.00000 ; amides O-C(O)-N-C
8817 8818 8819 8821 3
8817 8818 8819 8822 3
8823 8818 8819 8820 3 20.50160 0.00000 -20.50160 0.00000 0.00000 0.00000 ; amides wlj 6/20/97
8823 8818 8819 8821 3
8823 8818 8819 8822 3
8825 8826 8827 8828 3 33.20422 0.00000 -33.20422 0.00000 0.00000 0.00000 ; methylguanidinium ion
8825 8826 8827 8831 3 20.50160 0.00000 -20.50160 0.00000 0.00000 0.00000 ; imides
8826 8827 8828 8829 3
8826 8827 8828 8830 3
8831 8827 8828 8829 3
8831 8827 8828 8830 3
8833 8834 8835 8836 3 33.20422 0.00000 -33.20422 0.00000 0.00000 0.00000 ; methylguanidinium ion
8833 8834 8835 8839 3 20.50160 0.00000 -20.50160 0.00000 0.00000 0.00000 ; imides
8834 8835 8836 8837 3
8834 8835 8836 8838 3
8839 8835 8836 8837 3
8839 8835 8836 8838 3
8841 8842 8843 8844 3 33.20422 0.00000 -33.20422 0.00000 0.00000 0.00000 ; methylguanidinium ion
8841 8842 8843 8848 3 20.50160 0.00000 -20.50160 0.00000 0.00000 0.00000 ; imides
8842 8843 8844 8845 3 25.47638 0.00000 -25.47638 0.00000 0.00000 0.00000 ; amides O-C(O)-N-C
8842 8843 8844 8846 3
8842 8843 8844 8847 3
8848 8843 8844 8845 3 20.50160 0.00000 -20.50160 0.00000 0.00000 0.00000 ; amides wlj 6/20/97
8848 8843 8844 8846 3
8848 8843 8844 8847 3
8850 8851 8852 8853 3 33.20422 0.00000 -33.20422 0.00000 0.00000 0.00000 ; methylguanidinium ion
8850 8851 8852 8856 3 20.50160 0.00000 -20.50160 0.00000 0.00000 0.00000 ; imides
8851 8852 8853 8854 3
8851 8852 8853 8855 3
8856 8852 8853 8854 3
8856 8852 8853 8855 3
8858 8859 8860 8861 3 33.20422 0.00000 -33.20422 0.00000 0.00000 0.00000 ; methylguanidinium ion
8858 8859 8860 8865 3 20.50160 0.00000 -20.50160 0.00000 0.00000 0.00000 ; imides
8859 8860 8861 8862 3 25.47638 0.00000 -25.47638 0.00000 0.00000 0.00000 ; amides O-C(O)-N-C
8859 8860 8861 8863 3
8859 8860 8861 8864 3
8865 8860 8861 8862 3 20.50160 0.00000 -20.50160 0.00000 0.00000 0.00000 ; amides wlj 6/20/97
8865 8860 8861 8863 3
8865 8860 8861 8864 3
8867 8868 8869 8870 3 33.20422 0.00000 -33.20422 0.00000 0.00000 0.00000 ; methylguanidinium ion
8867 8868 8869 8873 3 20.50160 0.00000 -20.50160 0.00000 0.00000 0.00000 ; imides
8868 8869 8870 8871 3
8868 8869 8870 8872 3
8873 8869 8870 8871 3
8873 8869 8870 8872 3
8875 8876 8877 8878 3 33.20422 0.00000 -33.20422 0.00000 0.00000 0.00000 ; methylguanidinium ion
8875 8876 8877 8883 3 20.50160 0.00000 -20.50160 0.00000 0.00000 0.00000 ; imides
8876 8877 8878 8879 3 25.47638 0.00000 -25.47638 0.00000 0.00000 0.00000 ; amides O-C(O)-N-C
8876 8877 8878 8881 3
8876 8877 8878 8882 3
8877 8878 8879 8880 3 16.73600 4.18400 -20.92000 0.00000 0.00000 0.00000 ; carbamates
8881 8878 8879 8880 3
8882 8878 8879 8880 3
8883 8877 8878 8879 3 20.50160 0.00000 -20.50160 0.00000 0.00000 0.00000 ; amides wlj 6/20/97
8883 8877 8878 8881 3
8883 8877 8878 8882 3
8885 8886 8887 8888 3 33.20422 0.00000 -33.20422 0.00000 0.00000 0.00000 ; methylguanidinium ion
8885 8886 8887 8891 3 20.50160 0.00000 -20.50160 0.00000 0.00000 0.00000 ; imides
8886 8887 8888 8889 3
8886 8887 8888 8890 3
8891 8887 8888 8889 3
8891 8887 8888 8890 3
8893 8894 8895 8896 3 33.20422 0.00000 -33.20422 0.00000 0.00000 0.00000 ; methylguanidinium ion
8893 8894 8895 8899 3 20.50160 0.00000 -20.50160 0.00000 0.00000 0.00000 ; imides
8894 8895 8896 8897 3
8894 8895 8896 8898 3
8899 8895 8896 8897 3
8899 8895 8896 8898 3
8901 8902 8903 8904 3 33.20422 0.00000 -33.20422 0.00000 0.00000 0.00000 ; methylguanidinium ion
8901 8902 8903 8907 3 20.50160 0.00000 -20.50160 0.00000 0.00000 0.00000 ; imides
8902 8903 8904 8905 3
8902 8903 8904 8906 3
8907 8903 8904 8905 3
8907 8903 8904 8906 3
8909 8910 8911 8912 3 33.20422 0.00000 -33.20422 0.00000 0.00000 0.00000 ; methylguanidinium ion
8909 8910 8911 8916 3 20.50160 0.00000 -20.50160 0.00000 0.00000 0.00000 ; imides
8910 8911 8912 8913 3 25.47638 0.00000 -25.47638 0.00000 0.00000 0.00000 ; amides O-C(O)-N-C
8910 8911 8912 8914 3
8910 8911 8912 8915 3
8916 8911 8912 8913 3 20.50160 0.00000 -20.50160 0.00000 0.00000 0.00000 ; amides wlj 6/20/97
8916 8911 8912 8914 3
8916 8911 8912 8915 3
8918 8919 8920 8921 3 33.20422 0.00000 -33.20422 0.00000 0.00000 0.00000 ; methylguanidinium ion
8918 8919 8920 8924 3 20.50160 0.00000 -20.50160 0.00000 0.00000 0.00000 ; imides
8919 8920 8921 8922 3
8919 8920 8921 8923 3
8924 8920 8921 8922 3
8924 8920 8921 8923 3
8926 8927 8928 8929 3 33.20422 0.00000 -33.20422 0.00000 0.00000 0.00000 ; methylguanidinium ion
8926 8927 8928 8934 3 20.50160 0.00000 -20.50160 0.00000 0.00000 0.00000 ; imides
8927 8928 8929 8930 3 25.47638 0.00000 -25.47638 0.00000 0.00000 0.00000 ; amides O-C(O)-N-C
8927 8928 8929 8932 3
8927 8928 8929 8933 3
8928 8929 8930 8931 3 16.73600 4.18400 -20.92000 0.00000 0.00000 0.00000 ; carbamates
8932 8929 8930 8931 3
8933 8929 8930 8931 3
8934 8928 8929 8930 3 20.50160 0.00000 -20.50160 0.00000 0.00000 0.00000 ; amides wlj 6/20/97
8934 8928 8929 8932 3
8934 8928 8929 8933 3
8936 8937 8938 8939 3 33.20422 0.00000 -33.20422 0.00000 0.00000 0.00000 ; methylguanidinium ion
8936 8937 8938 8943 3 20.50160 0.00000 -20.50160 0.00000 0.00000 0.00000 ; imides
8937 8938 8939 8940 3 25.47638 0.00000 -25.47638 0.00000 0.00000 0.00000 ; amides O-C(O)-N-C
8937 8938 8939 8941 3
8937 8938 8939 8942 3
8943 8938 8939 8940 3 20.50160 0.00000 -20.50160 0.00000 0.00000 0.00000 ; amides wlj 6/20/97
8943 8938 8939 8941 3
8943 8938 8939 8942 3
8945 8946 8947 8948 3 33.20422 0.00000 -33.20422 0.00000 0.00000 0.00000 ; methylguanidinium ion
8945 8946 8947 8951 3 20.50160 0.00000 -20.50160 0.00000 0.00000 0.00000 ; imides
8946 8947 8948 8949 3
8946 8947 8948 8950 3
8951 8947 8948 8949 3
8951 8947 8948 8950 3
8953 8954 8955 8956 3 33.20422 0.00000 -33.20422 0.00000 0.00000 0.00000 ; methylguanidinium ion
8953 8954 8955 8960 3 20.50160 0.00000 -20.50160 0.00000 0.00000 0.00000 ; imides
8954 8955 8956 8957 3 25.47638 0.00000 -25.47638 0.00000 0.00000 0.00000 ; amides O-C(O)-N-C
8954 8955 8956 8958 3
8954 8955 8956 8959 3
8960 8955 8956 8957 3 20.50160 0.00000 -20.50160 0.00000 0.00000 0.00000 ; amides wlj 6/20/97
8960 8955 8956 8958 3
8960 8955 8956 8959 3
8962 8963 8964 8965 3 33.20422 0.00000 -33.20422 0.00000 0.00000 0.00000 ; methylguanidinium ion
8962 8963 8964 8969 3 20.50160 0.00000 -20.50160 0.00000 0.00000 0.00000 ; imides
8963 8964 8965 8966 3 25.47638 0.00000 -25.47638 0.00000 0.00000 0.00000 ; amides O-C(O)-N-C
8963 8964 8965 8967 3
8963 8964 8965 8968 3
8969 8964 8965 8966 3 20.50160 0.00000 -20.50160 0.00000 0.00000 0.00000 ; amides wlj 6/20/97
8969 8964 8965 8967 3
8969 8964 8965 8968 3
8971 8972 8973 8974 3 33.20422 0.00000 -33.20422 0.00000 0.00000 0.00000 ; methylguanidinium ion
8971 8972 8973 8977 3 20.50160 0.00000 -20.50160 0.00000 0.00000 0.00000 ; imides
8972 8973 8974 8975 3
8972 8973 8974 8976 3
8977 8973 8974 8975 3
8977 8973 8974 8976 3
8979 8980 8981 8982 3 33.20422 0.00000 -33.20422 0.00000 0.00000 0.00000 ; methylguanidinium ion
8979 8980 8981 8985 3 20.50160 0.00000 -20.50160 0.00000 0.00000 0.00000 ; imides
8980 8981 8982 8983 3
8980 8981 8982 8984 3
8985 8981 8982 8983 3
8985 8981 8982 8984 3
8987 8988 8989 8990 3 33.20422 0.00000 -33.20422 0.00000 0.00000 0.00000 ; methylguanidinium ion
8987 8988 8989 8993 3 20.50160 0.00000 -20.50160 0.00000 0.00000 0.00000 ; imides
8988 8989 8990 8991 3
8988 8989 8990 8992 3
8993 8989 8990 8991 3
8993 8989 8990 8992 3
8995 8996 8997 8998 3 33.20422 0.00000 -33.20422 0.00000 0.00000 0.00000 ; methylguanidinium ion
8995 8996 8997 9001 3 20.50160 0.00000 -20.50160 0.00000 0.00000 0.00000 ; imides
8996 8997 8998 8999 3
8996 8997 8998 9000 3
9001 8997 8998 8999 3
9001 8997 8998 9000 3
9003 9004 9005 9006 3 33.20422 0.00000 -33.20422 0.00000 0.00000 0.00000 ; methylguanidinium ion
9003 9004 9005 9011 3 20.50160 0.00000 -20.50160 0.00000 0.00000 0.00000 ; imides
9004 9005 9006 9007 3 25.47638 0.00000 -25.47638 0.00000 0.00000 0.00000 ; amides O-C(O)-N-C
9004 9005 9006 9009 3
9004 9005 9006 9010 3
9005 9006 9007 9008 3 16.73600 4.18400 -20.92000 0.00000 0.00000 0.00000 ; carbamates
9009 9006 9007 9008 3
9010 9006 9007 9008 3
9011 9005 9006 9007 3 20.50160 0.00000 -20.50160 0.00000 0.00000 0.00000 ; amides wlj 6/20/97
9011 9005 9006 9009 3
9011 9005 9006 9010 3
9013 9014 9015 9016 3 33.20422 0.00000 -33.20422 0.00000 0.00000 0.00000 ; methylguanidinium ion
9013 9014 9015 9019 3 20.50160 0.00000 -20.50160 0.00000 0.00000 0.00000 ; imides
9014 9015 9016 9017 3
9014 9015 9016 9018 3
9019 9015 9016 9017 3
9019 9015 9016 9018 3
9021 9022 9023 9024 3 33.20422 0.00000 -33.20422 0.00000 0.00000 0.00000 ; methylguanidinium ion
9021 9022 9023 9027 3 20.50160 0.00000 -20.50160 0.00000 0.00000 0.00000 ; imides
9022 9023 9024 9025 3
9022 9023 9024 9026 3
9027 9023 9024 9025 3
9027 9023 9024 9026 3
9029 9030 9031 9032 3 33.20422 0.00000 -33.20422 0.00000 0.00000 0.00000 ; methylguanidinium ion
9029 9030 9031 9035 3 20.50160 0.00000 -20.50160 0.00000 0.00000 0.00000 ; imides
9030 9031 9032 9033 3
9030 9031 9032 9034 3
9035 9031 9032 9033 3
9035 9031 9032 9034 3
9037 9038 9039 9040 3 33.20422 0.00000 -33.20422 0.00000 0.00000 0.00000 ; methylguanidinium ion
9037 9038 9039 9044 3 20.50160 0.00000 -20.50160 0.00000 0.00000 0.00000 ; imides
9038 9039 9040 9041 3 25.47638 0.00000 -25.47638 0.00000 0.00000 0.00000 ; amides O-C(O)-N-C
9038 9039 9040 9042 3
9038 9039 9040 9043 3
9044 9039 9040 9041 3 20.50160 0.00000 -20.50160 0.00000 0.00000 0.00000 ; amides wlj 6/20/97
9044 9039 9040 9042 3
9044 9039 9040 9043 3
9046 9047 9048 9049 3 33.20422 0.00000 -33.20422 0.00000 0.00000 0.00000 ; methylguanidinium ion
9046 9047 9048 9052 3 20.50160 0.00000 -20.50160 0.00000 0.00000 0.00000 ; imides
9047 9048 9049 9050 3
9047 9048 9049 9051 3
9052 9048 9049 9050 3
9052 9048 9049 9051 3
9054 9055 9056 9057 3 33.20422 0.00000 -33.20422 0.00000 0.00000 0.00000 ; methylguanidinium ion
9054 9055 9056 9060 3 20.50160 0.00000 -20.50160 0.00000 0.00000 0.00000 ; imides
9055 9056 9057 9058 3
9055 9056 9057 9059 3
9060 9056 9057 9058 3
9060 9056 9057 9059 3
9062 9063 9064 9065 3 33.20422 0.00000 -33.20422 0.00000 0.00000 0.00000 ; methylguanidinium ion
9062 9063 9064 9068 3 20.50160 0.00000 -20.50160 0.00000 0.00000 0.00000 ; imides
9063 9064 9065 9066 3
9063 9064 9065 9067 3
9068 9064 9065 9066 3
9068 9064 9065 9067 3
9070 9071 9072 9073 3 33.20422 0.00000 -33.20422 0.00000 0.00000 0.00000 ; methylguanidinium ion
9070 9071 9072 9076 3 20.50160 0.00000 -20.50160 0.00000 0.00000 0.00000 ; imides
9071 9072 9073 9074 3
9071 9072 9073 9075 3
9076 9072 9073 9074 3
9076 9072 9073 9075 3
9078 9079 9080 9081 3 33.20422 0.00000 -33.20422 0.00000 0.00000 0.00000 ; methylguanidinium ion
9078 9079 9080 9084 3 20.50160 0.00000 -20.50160 0.00000 0.00000 0.00000 ; imides
9079 9080 9081 9082 3
9079 9080 9081 9083 3
9084 9080 9081 9082 3
9084 9080 9081 9083 3
9086 9087 9088 9089 3 33.20422 0.00000 -33.20422 0.00000 0.00000 0.00000 ; methylguanidinium ion
9086 9087 9088 9092 3 20.50160 0.00000 -20.50160 0.00000 0.00000 0.00000 ; imides
9087 9088 9089 9090 3
9087 9088 9089 9091 3
9092 9088 9089 9090 3
9092 9088 9089 9091 3
9094 9095 9096 9097 3 33.20422 0.00000 -33.20422 0.00000 0.00000 0.00000 ; methylguanidinium ion
9094 9095 9096 9101 3 20.50160 0.00000 -20.50160 0.00000 0.00000 0.00000 ; imides
9095 9096 9097 9098 3 25.47638 0.00000 -25.47638 0.00000 0.00000 0.00000 ; amides O-C(O)-N-C
9095 9096 9097 9099 3
9095 9096 9097 9100 3
9101 9096 9097 9098 3 20.50160 0.00000 -20.50160 0.00000 0.00000 0.00000 ; amides wlj 6/20/97
9101 9096 9097 9099 3
9101 9096 9097 9100 3
9103 9104 9105 9106 3 33.20422 0.00000 -33.20422 0.00000 0.00000 0.00000 ; methylguanidinium ion
9103 9104 9105 9109 3 20.50160 0.00000 -20.50160 0.00000 0.00000 0.00000 ; imides
9104 9105 9106 9107 3
9104 9105 9106 9108 3
9109 9105 9106 9107 3
9109 9105 9106 9108 3
9111 9112 9113 9114 3 33.20422 0.00000 -33.20422 0.00000 0.00000 0.00000 ; methylguanidinium ion
9111 9112 9113 9117 3 20.50160 0.00000 -20.50160 0.00000 0.00000 0.00000 ; imides
9112 9113 9114 9115 3
9112 9113 9114 9116 3
9117 9113 9114 9115 3
9117 9113 9114 9116 3
9119 9120 9121 9122 3 33.20422 0.00000 -33.20422 0.00000 0.00000 0.00000 ; methylguanidinium ion
9119 9120 9121 9126 3 20.50160 0.00000 -20.50160 0.00000 0.00000 0.00000 ; imides
9120 9121 9122 9123 3 25.47638 0.00000 -25.47638 0.00000 0.00000 0.00000 ; amides O-C(O)-N-C
9120 9121 9122 9124 3
9120 9121 9122 9125 3
9126 9121 9122 9123 3 20.50160 0.00000 -20.50160 0.00000 0.00000 0.00000 ; amides wlj 6/20/97
9126 9121 9122 9124 3
9126 9121 9122 9125 3
9128 9129 9130 9131 3 33.20422 0.00000 -33.20422 0.00000 0.00000 0.00000 ; methylguanidinium ion
9128 9129 9130 9134 3 20.50160 0.00000 -20.50160 0.00000 0.00000 0.00000 ; imides
9129 9130 9131 9132 3
9129 9130 9131 9133 3
9134 9130 9131 9132 3
9134 9130 9131 9133 3
9136 9137 9138 9139 3 33.20422 0.00000 -33.20422 0.00000 0.00000 0.00000 ; methylguanidinium ion
9136 9137 9138 9144 3 20.50160 0.00000 -20.50160 0.00000 0.00000 0.00000 ; imides
9137 9138 9139 9140 3 25.47638 0.00000 -25.47638 0.00000 0.00000 0.00000 ; amides O-C(O)-N-C
9137 9138 9139 9142 3
9137 9138 9139 9143 3
9138 9139 9140 9141 3 16.73600 4.18400 -20.92000 0.00000 0.00000 0.00000 ; carbamates
9142 9139 9140 9141 3
9143 9139 9140 9141 3
9144 9138 9139 9140 3 20.50160 0.00000 -20.50160 0.00000 0.00000 0.00000 ; amides wlj 6/20/97
9144 9138 9139 9142 3
9144 9138 9139 9143 3
9146 9147 9148 9149 3 33.20422 0.00000 -33.20422 0.00000 0.00000 0.00000 ; methylguanidinium ion
9146 9147 9148 9154 3 20.50160 0.00000 -20.50160 0.00000 0.00000 0.00000 ; imides
9147 9148 9149 9150 3 25.47638 0.00000 -25.47638 0.00000 0.00000 0.00000 ; amides O-C(O)-N-C
9147 9148 9149 9152 3
9147 9148 9149 9153 3
9148 9149 9150 9151 3 16.73600 4.18400 -20.92000 0.00000 0.00000 0.00000 ; carbamates
9152 9149 9150 9151 3
9153 9149 9150 9151 3
9154 9148 9149 9150 3 20.50160 0.00000 -20.50160 0.00000 0.00000 0.00000 ; amides wlj 6/20/97
9154 9148 9149 9152 3
9154 9148 9149 9153 3
9156 9157 9158 9159 3 33.20422 0.00000 -33.20422 0.00000 0.00000 0.00000 ; methylguanidinium ion
9156 9157 9158 9163 3 20.50160 0.00000 -20.50160 0.00000 0.00000 0.00000 ; imides
9157 9158 9159 9160 3 25.47638 0.00000 -25.47638 0.00000 0.00000 0.00000 ; amides O-C(O)-N-C
9157 9158 9159 9161 3
9157 9158 9159 9162 3
9163 9158 9159 9160 3 20.50160 0.00000 -20.50160 0.00000 0.00000 0.00000 ; amides wlj 6/20/97
9163 9158 9159 9161 3
9163 9158 9159 9162 3
9165 9166 9167 9168 3 33.20422 0.00000 -33.20422 0.00000 0.00000 0.00000 ; methylguanidinium ion
9165 9166 9167 9171 3 20.50160 0.00000 -20.50160 0.00000 0.00000 0.00000 ; imides
9166 9167 9168 9169 3
9166 9167 9168 9170 3
9171 9167 9168 9169 3
9171 9167 9168 9170 3
9173 9174 9175 9176 3 33.20422 0.00000 -33.20422 0.00000 0.00000 0.00000 ; methylguanidinium ion
9173 9174 9175 9179 3 20.50160 0.00000 -20.50160 0.00000 0.00000 0.00000 ; imides
9174 9175 9176 9177 3
9174 9175 9176 9178 3
9179 9175 9176 9177 3
9179 9175 9176 9178 3
9181 9182 9183 9184 3 33.20422 0.00000 -33.20422 0.00000 0.00000 0.00000 ; methylguanidinium ion
9181 9182 9183 9187 3 20.50160 0.00000 -20.50160 0.00000 0.00000 0.00000 ; imides
9182 9183 9184 9185 3
9182 9183 9184 9186 3
9187 9183 9184 9185 3
9187 9183 9184 9186 3
9189 9190 9191 9192 3 33.20422 0.00000 -33.20422 0.00000 0.00000 0.00000 ; methylguanidinium ion
9189 9190 9191 9195 3 20.50160 0.00000 -20.50160 0.00000 0.00000 0.00000 ; imides
9190 9191 9192 9193 3
9190 9191 9192 9194 3
9195 9191 9192 9193 3
9195 9191 9192 9194 3
9197 9198 9199 9200 3 33.20422 0.00000 -33.20422 0.00000 0.00000 0.00000 ; methylguanidinium ion
9197 9198 9199 9203 3 20.50160 0.00000 -20.50160 0.00000 0.00000 0.00000 ; imides
9198 9199 9200 9201 3
9198 9199 9200 9202 3
9203 9199 9200 9201 3
9203 9199 9200 9202 3
9205 9206 9207 9208 3 33.20422 0.00000 -33.20422 0.00000 0.00000 0.00000 ; methylguanidinium ion
9205 9206 9207 9212 3 20.50160 0.00000 -20.50160 0.00000 0.00000 0.00000 ; imides
9206 9207 9208 9209 3 25.47638 0.00000 -25.47638 0.00000 0.00000 0.00000 ; amides O-C(O)-N-C
9206 9207 9208 9210 3
9206 9207 9208 9211 3
9212 9207 9208 9209 3 20.50160 0.00000 -20.50160 0.00000 0.00000 0.00000 ; amides wlj 6/20/97
9212 9207 9208 9210 3
9212 9207 9208 9211 3
9214 9215 9216 9217 3 33.20422 0.00000 -33.20422 0.00000 0.00000 0.00000 ; methylguanidinium ion
9214 9215 9216 9220 3 20.50160 0.00000 -20.50160 0.00000 0.00000 0.00000 ; imides
9215 9216 9217 9218 3
9215 9216 9217 9219 3
9220 9216 9217 9218 3
9220 9216 9217 9219 3
9222 9223 9224 9225 3 33.20422 0.00000 -33.20422 0.00000 0.00000 0.00000 ; methylguanidinium ion
9222 9223 9224 9228 3 20.50160 0.00000 -20.50160 0.00000 0.00000 0.00000 ; imides
9223 9224 9225 9226 3
9223 9224 9225 9227 3
9228 9224 9225 9226 3
9228 9224 9225 9227 3
9230 9231 9232 9233 3 33.20422 0.00000 -33.20422 0.00000 0.00000 0.00000 ; methylguanidinium ion
9230 9231 9232 9236 3 20.50160 0.00000 -20.50160 0.00000 0.00000 0.00000 ; imides
9231 9232 9233 9234 3
9231 9232 9233 9235 3
9236 9232 9233 9234 3
9236 9232 9233 9235 3
9238 9239 9240 9241 3 33.20422 0.00000 -33.20422 0.00000 0.00000 0.00000 ; methylguanidinium ion
9238 9239 9240 9245 3 20.50160 0.00000 -20.50160 0.00000 0.00000 0.00000 ; imides
9239 9240 9241 9242 3 25.47638 0.00000 -25.47638 0.00000 0.00000 0.00000 ; amides O-C(O)-N-C
9239 9240 9241 9243 3
9239 9240 9241 9244 3
9245 9240 9241 9242 3 20.50160 0.00000 -20.50160 0.00000 0.00000 0.00000 ; amides wlj 6/20/97
9245 9240 9241 9243 3
9245 9240 9241 9244 3
9247 9248 9249 9250 3 33.20422 0.00000 -33.20422 0.00000 0.00000 0.00000 ; methylguanidinium ion
9247 9248 9249 9253 3 20.50160 0.00000 -20.50160 0.00000 0.00000 0.00000 ; imides
9248 9249 9250 9251 3
9248 9249 9250 9252 3
9253 9249 9250 9251 3
9253 9249 9250 9252 3
9255 9256 9257 9258 3 33.20422 0.00000 -33.20422 0.00000 0.00000 0.00000 ; methylguanidinium ion
9255 9256 9257 9261 3 20.50160 0.00000 -20.50160 0.00000 0.00000 0.00000 ; imides
9256 9257 9258 9259 3
9256 9257 9258 9260 3
9261 9257 9258 9259 3
9261 9257 9258 9260 3
9263 9264 9265 9266 3 33.20422 0.00000 -33.20422 0.00000 0.00000 0.00000 ; methylguanidinium ion
9263 9264 9265 9269 3 20.50160 0.00000 -20.50160 0.00000 0.00000 0.00000 ; imides
9264 9265 9266 9267 3
9264 9265 9266 9268 3
9269 9265 9266 9267 3
9269 9265 9266 9268 3
9271 9272 9273 9274 3 33.20422 0.00000 -33.20422 0.00000 0.00000 0.00000 ; methylguanidinium ion
9271 9272 9273 9277 3 20.50160 0.00000 -20.50160 0.00000 0.00000 0.00000 ; imides
9272 9273 9274 9275 3
9272 9273 9274 9276 3
9277 9273 9274 9275 3
9277 9273 9274 9276 3
9279 9280 9281 9282 3 33.20422 0.00000 -33.20422 0.00000 0.00000 0.00000 ; methylguanidinium ion
9279 9280 9281 9285 3 20.50160 0.00000 -20.50160 0.00000 0.00000 0.00000 ; imides
9280 9281 9282 9283 3
9280 9281 9282 9284 3
9285 9281 9282 9283 3
9285 9281 9282 9284 3
9287 9288 9289 9290 3 33.20422 0.00000 -33.20422 0.00000 0.00000 0.00000 ; methylguanidinium ion
9287 9288 9289 9293 3 20.50160 0.00000 -20.50160 0.00000 0.00000 0.00000 ; imides
9288 9289 9290 9291 3
9288 9289 9290 9292 3
9293 9289 9290 9291 3
9293 9289 9290 9292 3
9295 9296 9297 9298 3 33.20422 0.00000 -33.20422 0.00000 0.00000 0.00000 ; methylguanidinium ion
9295 9296 9297 9303 3 20.50160 0.00000 -20.50160 0.00000 0.00000 0.00000 ; imides
9296 9297 9298 9299 3 25.47638 0.00000 -25.47638 0.00000 0.00000 0.00000 ; amides O-C(O)-N-C
9296 9297 9298 9301 3
9296 9297 9298 9302 3
9297 9298 9299 9300 3 16.73600 4.18400 -20.92000 0.00000 0.00000 0.00000 ; carbamates
9301 9298 9299 9300 3
9302 9298 9299 9300 3
9303 9297 9298 9299 3 20.50160 0.00000 -20.50160 0.00000 0.00000 0.00000 ; amides wlj 6/20/97
9303 9297 9298 9301 3
9303 9297 9298 9302 3
9305 9306 9307 9308 3 33.20422 0.00000 -33.20422 0.00000 0.00000 0.00000 ; methylguanidinium ion
9305 9306 9307 9311 3 20.50160 0.00000 -20.50160 0.00000 0.00000 0.00000 ; imides
9306 9307 9308 9309 3
9306 9307 9308 9310 3
9311 9307 9308 9309 3
9311 9307 9308 9310 3
9313 9314 9315 9316 3 33.20422 0.00000 -33.20422 0.00000 0.00000 0.00000 ; methylguanidinium ion
9313 9314 9315 9320 3 20.50160 0.00000 -20.50160 0.00000 0.00000 0.00000 ; imides
9314 9315 9316 9317 3 25.47638 0.00000 -25.47638 0.00000 0.00000 0.00000 ; amides O-C(O)-N-C
9314 9315 9316 9318 3
9314 9315 9316 9319 3
9320 9315 9316 9317 3 20.50160 0.00000 -20.50160 0.00000 0.00000 0.00000 ; amides wlj 6/20/97
9320 9315 9316 9318 3
9320 9315 9316 9319 3
9322 9323 9324 9325 3 33.20422 0.00000 -33.20422 0.00000 0.00000 0.00000 ; methylguanidinium ion
9322 9323 9324 9329 3 20.50160 0.00000 -20.50160 0.00000 0.00000 0.00000 ; imides
9323 9324 9325 9326 3 25.47638 0.00000 -25.47638 0.00000 0.00000 0.00000 ; amides O-C(O)-N-C
9323 9324 9325 9327 3
9323 9324 9325 9328 3
9329 9324 9325 9326 3 20.50160 0.00000 -20.50160 0.00000 0.00000 0.00000 ; amides wlj 6/20/97
9329 9324 9325 9327 3
9329 9324 9325 9328 3
9331 9332 9333 9334 3 33.20422 0.00000 -33.20422 0.00000 0.00000 0.00000 ; methylguanidinium ion
9331 9332 9333 9337 3 20.50160 0.00000 -20.50160 0.00000 0.00000 0.00000 ; imides
9332 9333 9334 9335 3
9332 9333 9334 9336 3
9337 9333 9334 9335 3
9337 9333 9334 9336 3
9339 9340 9341 9342 3 33.20422 0.00000 -33.20422 0.00000 0.00000 0.00000 ; methylguanidinium ion
9339 9340 9341 9345 3 20.50160 0.00000 -20.50160 0.00000 0.00000 0.00000 ; imides
9340 9341 9342 9343 3
9340 9341 9342 9344 3
9345 9341 9342 9343 3
9345 9341 9342 9344 3
9347 9348 9349 9350 3 33.20422 0.00000 -33.20422 0.00000 0.00000 0.00000 ; methylguanidinium ion
9347 9348 9349 9354 3 20.50160 0.00000 -20.50160 0.00000 0.00000 0.00000 ; imides
9348 9349 9350 9351 3 25.47638 0.00000 -25.47638 0.00000 0.00000 0.00000 ; amides O-C(O)-N-C
9348 9349 9350 9352 3
9348 9349 9350 9353 3
9354 9349 9350 9351 3 20.50160 0.00000 -20.50160 0.00000 0.00000 0.00000 ; amides wlj 6/20/97
9354 9349 9350 9352 3
9354 9349 9350 9353 3
9356 9357 9358 9359 3 33.20422 0.00000 -33.20422 0.00000 0.00000 0.00000 ; methylguanidinium ion
9356 9357 9358 9362 3 20.50160 0.00000 -20.50160 0.00000 0.00000 0.00000 ; imides
9357 9358 9359 9360 3
9357 9358 9359 9361 3
9362 9358 9359 9360 3
9362 9358 9359 9361 3
9364 9365 9366 9367 3 33.20422 0.00000 -33.20422 0.00000 0.00000 0.00000 ; methylguanidinium ion
9364 9365 9366 9370 3 20.50160 0.00000 -20.50160 0.00000 0.00000 0.00000 ; imides
9365 9366 9367 9368 3
9365 9366 9367 9369 3
9370 9366 9367 9368 3
9370 9366 9367 9369 3
9372 9373 9374 9375 3 33.20422 0.00000 -33.20422 0.00000 0.00000 0.00000 ; methylguanidinium ion
9372 9373 9374 9380 3 20.50160 0.00000 -20.50160 0.00000 0.00000 0.00000 ; imides
9373 9374 9375 9376 3 25.47638 0.00000 -25.47638 0.00000 0.00000 0.00000 ; amides O-C(O)-N-C
9373 9374 9375 9378 3
9373 9374 9375 9379 3
9374 9375 9376 9377 3 16.73600 4.18400 -20.92000 0.00000 0.00000 0.00000 ; carbamates
9378 9375 9376 9377 3
9379 9375 9376 9377 3
9380 9374 9375 9376 3 20.50160 0.00000 -20.50160 0.00000 0.00000 0.00000 ; amides wlj 6/20/97
9380 9374 9375 9378 3
9380 9374 9375 9379 3
9382 9383 9384 9385 3 33.20422 0.00000 -33.20422 0.00000 0.00000 0.00000 ; methylguanidinium ion
9382 9383 9384 9389 3 20.50160 0.00000 -20.50160 0.00000 0.00000 0.00000 ; imides
9383 9384 9385 9386 3 25.47638 0.00000 -25.47638 0.00000 0.00000 0.00000 ; amides O-C(O)-N-C
9383 9384 9385 9387 3
9383 9384 9385 9388 3
9389 9384 9385 9386 3 20.50160 0.00000 -20.50160 0.00000 0.00000 0.00000 ; amides wlj 6/20/97
9389 9384 9385 9387 3
9389 9384 9385 9388 3
9391 9392 9393 9394 3 33.20422 0.00000 -33.20422 0.00000 0.00000 0.00000 ; methylguanidinium ion
9391 9392 9393 9397 3 20.50160 0.00000 -20.50160 0.00000 0.00000 0.00000 ; imides
9392 9393 9394 9395 3
9392 9393 9394 9396 3
9397 9393 9394 9395 3
9397 9393 9394 9396 3
9399 9400 9401 9402 3 33.20422 0.00000 -33.20422 0.00000 0.00000 0.00000 ; methylguanidinium ion
9399 9400 9401 9405 3 20.50160 0.00000 -20.50160 0.00000 0.00000 0.00000 ; imides
9400 9401 9402 9403 3
9400 9401 9402 9404 3
9405 9401 9402 9403 3
9405 9401 9402 9404 3
9407 9408 9409 9410 3 33.20422 0.00000 -33.20422 0.00000 0.00000 0.00000 ; methylguanidinium ion
9407 9408 9409 9413 3 20.50160 0.00000 -20.50160 0.00000 0.00000 0.00000 ; imides
9408 9409 9410 9411 3
9408 9409 9410 9412 3
9413 9409 9410 9411 3
9413 9409 9410 9412 3
9415 9416 9417 9418 3 33.20422 0.00000 -33.20422 0.00000 0.00000 0.00000 ; methylguanidinium ion
9415 9416 9417 9421 3 20.50160 0.00000 -20.50160 0.00000 0.00000 0.00000 ; imides
9416 9417 9418 9419 3
9416 9417 9418 9420 3
9421 9417 9418 9419 3
9421 9417 9418 9420 3
9423 9424 9425 9426 3 33.20422 0.00000 -33.20422 0.00000 0.00000 0.00000 ; methylguanidinium ion
9423 9424 9425 9429 3 20.50160 0.00000 -20.50160 0.00000 0.00000 0.00000 ; imides
9424 9425 9426 9427 3
9424 9425 9426 9428 3
9429 9425 9426 9427 3
9429 9425 9426 9428 3
9431 9432 9433 9434 3 33.20422 0.00000 -33.20422 0.00000 0.00000 0.00000 ; methylguanidinium ion
9431 9432 9433 9437 3 20.50160 0.00000 -20.50160 0.00000 0.00000 0.00000 ; imides
9432 9433 9434 9435 3
9432 9433 9434 9436 3
9437 9433 9434 9435 3
9437 9433 9434 9436 3
9439 9440 9441 9442 3 33.20422 0.00000 -33.20422 0.00000 0.00000 0.00000 ; methylguanidinium ion
9439 9440 9441 9446 3 20.50160 0.00000 -20.50160 0.00000 0.00000 0.00000 ; imides
9440 9441 9442 9443 3 25.47638 0.00000 -25.47638 0.00000 0.00000 0.00000 ; amides O-C(O)-N-C
9440 9441 9442 9444 3
9440 9441 9442 9445 3
9446 9441 9442 9443 3 20.50160 0.00000 -20.50160 0.00000 0.00000 0.00000 ; amides wlj 6/20/97
9446 9441 9442 9444 3
9446 9441 9442 9445 3
9448 9449 9450 9451 3 33.20422 0.00000 -33.20422 0.00000 0.00000 0.00000 ; methylguanidinium ion
9448 9449 9450 9454 3 20.50160 0.00000 -20.50160 0.00000 0.00000 0.00000 ; imides
9449 9450 9451 9452 3
9449 9450 9451 9453 3
9454 9450 9451 9452 3
9454 9450 9451 9453 3
9456 9457 9458 9459 3 33.20422 0.00000 -33.20422 0.00000 0.00000 0.00000 ; methylguanidinium ion
9456 9457 9458 9462 3 20.50160 0.00000 -20.50160 0.00000 0.00000 0.00000 ; imides
9457 9458 9459 9460 3
9457 9458 9459 9461 3
9462 9458 9459 9460 3
9462 9458 9459 9461 3
9464 9465 9466 9467 3 33.20422 0.00000 -33.20422 0.00000 0.00000 0.00000 ; methylguanidinium ion
9464 9465 9466 9470 3 20.50160 0.00000 -20.50160 0.00000 0.00000 0.00000 ; imides
9465 9466 9467 9468 3
9465 9466 9467 9469 3
9470 9466 9467 9468 3
9470 9466 9467 9469 3
9472 9473 9474 9475 3 33.20422 0.00000 -33.20422 0.00000 0.00000 0.00000 ; methylguanidinium ion
9472 9473 9474 9478 3 20.50160 0.00000 -20.50160 0.00000 0.00000 0.00000 ; imides
9473 9474 9475 9476 3
9473 9474 9475 9477 3
9478 9474 9475 9476 3
9478 9474 9475 9477 3
9480 9481 9482 9483 3 33.20422 0.00000 -33.20422 0.00000 0.00000 0.00000 ; methylguanidinium ion
9480 9481 9482 9487 3 20.50160 0.00000 -20.50160 0.00000 0.00000 0.00000 ; imides
9481 9482 9483 9484 3 25.47638 0.00000 -25.47638 0.00000 0.00000 0.00000 ; amides O-C(O)-N-C
9481 9482 9483 9485 3
9481 9482 9483 9486 3
9487 9482 9483 9484 3 20.50160 0.00000 -20.50160 0.00000 0.00000 0.00000 ; amides wlj 6/20/97
9487 9482 9483 9485 3
9487 9482 9483 9486 3
9489 9490 9491 9492 3 33.20422 0.00000 -33.20422 0.00000 0.00000 0.00000 ; methylguanidinium ion
9489 9490 9491 9496 3 20.50160 0.00000 -20.50160 0.00000 0.00000 0.00000 ; imides
9490 9491 9492 9493 3 25.47638 0.00000 -25.47638 0.00000 0.00000 0.00000 ; amides O-C(O)-N-C
9490 9491 9492 9494 3
9490 9491 9492 9495 3
9496 9491 9492 9493 3 20.50160 0.00000 -20.50160 0.00000 0.00000 0.00000 ; amides wlj 6/20/97
9496 9491 9492 9494 3
9496 9491 9492 9495 3
9498 9499 9500 9501 3 33.20422 0.00000 -33.20422 0.00000 0.00000 0.00000 ; methylguanidinium ion
9498 9499 9500 9504 3 20.50160 0.00000 -20.50160 0.00000 0.00000 0.00000 ; imides
9499 9500 9501 9502 3
9499 9500 9501 9503 3
9504 9500 9501 9502 3
9504 9500 9501 9503 3
9506 9507 9508 9509 3 33.20422 0.00000 -33.20422 0.00000 0.00000 0.00000 ; methylguanidinium ion
9506 9507 9508 9513 3 20.50160 0.00000 -20.50160 0.00000 0.00000 0.00000 ; imides
9507 9508 9509 9510 3 25.47638 0.00000 -25.47638 0.00000 0.00000 0.00000 ; amides O-C(O)-N-C
9507 9508 9509 9511 3
9507 9508 9509 9512 3
9513 9508 9509 9510 3 20.50160 0.00000 -20.50160 0.00000 0.00000 0.00000 ; amides wlj 6/20/97
9513 9508 9509 9511 3
9513 9508 9509 9512 3
9515 9516 9517 9518 3 33.20422 0.00000 -33.20422 0.00000 0.00000 0.00000 ; methylguanidinium ion
9515 9516 9517 9522 3 20.50160 0.00000 -20.50160 0.00000 0.00000 0.00000 ; imides
9516 9517 9518 9519 3 25.47638 0.00000 -25.47638 0.00000 0.00000 0.00000 ; amides O-C(O)-N-C
9516 9517 9518 9520 3
9516 9517 9518 9521 3
9522 9517 9518 9519 3 20.50160 0.00000 -20.50160 0.00000 0.00000 0.00000 ; amides wlj 6/20/97
9522 9517 9518 9520 3
9522 9517 9518 9521 3
9524 9525 9526 9527 3 33.20422 0.00000 -33.20422 0.00000 0.00000 0.00000 ; methylguanidinium ion
9524 9525 9526 9530 3 20.50160 0.00000 -20.50160 0.00000 0.00000 0.00000 ; imides
9525 9526 9527 9528 3
9525 9526 9527 9529 3
9530 9526 9527 9528 3
9530 9526 9527 9529 3
9532 9533 9534 9535 3 33.20422 0.00000 -33.20422 0.00000 0.00000 0.00000 ; methylguanidinium ion
9532 9533 9534 9539 3 20.50160 0.00000 -20.50160 0.00000 0.00000 0.00000 ; imides
9533 9534 9535 9536 3 25.47638 0.00000 -25.47638 0.00000 0.00000 0.00000 ; amides O-C(O)-N-C
9533 9534 9535 9537 3
9533 9534 9535 9538 3
9539 9534 9535 9536 3 20.50160 0.00000 -20.50160 0.00000 0.00000 0.00000 ; amides wlj 6/20/97
9539 9534 9535 9537 3
9539 9534 9535 9538 3
9541 9542 9543 9544 3 33.20422 0.00000 -33.20422 0.00000 0.00000 0.00000 ; methylguanidinium ion
9541 9542 9543 9547 3 20.50160 0.00000 -20.50160 0.00000 0.00000 0.00000 ; imides
9542 9543 9544 9545 3
9542 9543 9544 9546 3
9547 9543 9544 9545 3
9547 9543 9544 9546 3
9549 9550 9551 9552 3 33.20422 0.00000 -33.20422 0.00000 0.00000 0.00000 ; methylguanidinium ion
9549 9550 9551 9556 3 20.50160 0.00000 -20.50160 0.00000 0.00000 0.00000 ; imides
9550 9551 9552 9553 3 25.47638 0.00000 -25.47638 0.00000 0.00000 0.00000 ; amides O-C(O)-N-C
9550 9551 9552 9554 3
9550 9551 9552 9555 3
9556 9551 9552 9553 3 20.50160 0.00000 -20.50160 0.00000 0.00000 0.00000 ; amides wlj 6/20/97
9556 9551 9552 9554 3
9556 9551 9552 9555 3
9558 9559 9560 9561 3 33.20422 0.00000 -33.20422 0.00000 0.00000 0.00000 ; methylguanidinium ion
9558 9559 9560 9564 3 20.50160 0.00000 -20.50160 0.00000 0.00000 0.00000 ; imides
9559 9560 9561 9562 3
9559 9560 9561 9563 3
9564 9560 9561 9562 3
9564 9560 9561 9563 3
9566 9567 9568 9569 3 33.20422 0.00000 -33.20422 0.00000 0.00000 0.00000 ; methylguanidinium ion
9566 9567 9568 9573 3 20.50160 0.00000 -20.50160 0.00000 0.00000 0.00000 ; imides
9567 9568 9569 9570 3 25.47638 0.00000 -25.47638 0.00000 0.00000 0.00000 ; amides O-C(O)-N-C
9567 9568 9569 9571 3
9567 9568 9569 9572 3
9573 9568 9569 9570 3 20.50160 0.00000 -20.50160 0.00000 0.00000 0.00000 ; amides wlj 6/20/97
9573 9568 9569 9571 3
9573 9568 9569 9572 3
9575 9576 9577 9578 3 33.20422 0.00000 -33.20422 0.00000 0.00000 0.00000 ; methylguanidinium ion
9575 9576 9577 9583 3 20.50160 0.00000 -20.50160 0.00000 0.00000 0.00000 ; imides
9576 9577 9578 9579 3 25.47638 0.00000 -25.47638 0.00000 0.00000 0.00000 ; amides O-C(O)-N-C
9576 9577 9578 9581 3
9576 9577 9578 9582 3
9577 9578 9579 9580 3 16.73600 4.18400 -20.92000 0.00000 0.00000 0.00000 ; carbamates
9581 9578 9579 9580 3
9582 9578 9579 9580 3
9583 9577 9578 9579 3 20.50160 0.00000 -20.50160 0.00000 0.00000 0.00000 ; amides wlj 6/20/97
9583 9577 9578 9581 3
9583 9577 9578 9582 3
9585 9586 9587 9588 3 33.20422 0.00000 -33.20422 0.00000 0.00000 0.00000 ; methylguanidinium ion
9585 9586 9587 9592 3 20.50160 0.00000 -20.50160 0.00000 0.00000 0.00000 ; imides
9586 9587 9588 9589 3 25.47638 0.00000 -25.47638 0.00000 0.00000 0.00000 ; amides O-C(O)-N-C
9586 9587 9588 9590 3
9586 9587 9588 9591 3
9592 9587 9588 9589 3 20.50160 0.00000 -20.50160 0.00000 0.00000 0.00000 ; amides wlj 6/20/97
9592 9587 9588 9590 3
9592 9587 9588 9591 3
9594 9595 9596 9597 3 33.20422 0.00000 -33.20422 0.00000 0.00000 0.00000 ; methylguanidinium ion
9594 9595 9596 9601 3 20.50160 0.00000 -20.50160 0.00000 0.00000 0.00000 ; imides
9595 9596 9597 9598 3 25.47638 0.00000 -25.47638 0.00000 0.00000 0.00000 ; amides O-C(O)-N-C
9595 9596 9597 9599 3
9595 9596 9597 9600 3
9601 9596 9597 9598 3 20.50160 0.00000 -20.50160 0.00000 0.00000 0.00000 ; amides wlj 6/20/97
9601 9596 9597 9599 3
9601 9596 9597 9600 3
9603 9604 9605 9606 3 33.20422 0.00000 -33.20422 0.00000 0.00000 0.00000 ; methylguanidinium ion
9603 9604 9605 9609 3 20.50160 0.00000 -20.50160 0.00000 0.00000 0.00000 ; imides
9604 9605 9606 9607 3
9604 9605 9606 9608 3
9609 9605 9606 9607 3
9609 9605 9606 9608 3
9611 9612 9613 9614 3 33.20422 0.00000 -33.20422 0.00000 0.00000 0.00000 ; methylguanidinium ion
9611 9612 9613 9617 3 20.50160 0.00000 -20.50160 0.00000 0.00000 0.00000 ; imides
9612 9613 9614 9615 3
9612 9613 9614 9616 3
9617 9613 9614 9615 3
9617 9613 9614 9616 3
9619 9620 9621 9622 3 33.20422 0.00000 -33.20422 0.00000 0.00000 0.00000 ; methylguanidinium ion
9619 9620 9621 9625 3 20.50160 0.00000 -20.50160 0.00000 0.00000 0.00000 ; imides
9620 9621 9622 9623 3
9620 9621 9622 9624 3
9625 9621 9622 9623 3
9625 9621 9622 9624 3
9627 9628 9629 9630 3 33.20422 0.00000 -33.20422 0.00000 0.00000 0.00000 ; methylguanidinium ion
9627 9628 9629 9633 3 20.50160 0.00000 -20.50160 0.00000 0.00000 0.00000 ; imides
9628 9629 9630 9631 3
9628 9629 9630 9632 3
9633 9629 9630 9631 3
9633 9629 9630 9632 3
9635 9636 9637 9638 3 33.20422 0.00000 -33.20422 0.00000 0.00000 0.00000 ; methylguanidinium ion
9635 9636 9637 9641 3 20.50160 0.00000 -20.50160 0.00000 0.00000 0.00000 ; imides
9636 9637 9638 9639 3
9636 9637 9638 9640 3
9641 9637 9638 9639 3
9641 9637 9638 9640 3
9643 9644 9645 9646 3 33.20422 0.00000 -33.20422 0.00000 0.00000 0.00000 ; methylguanidinium ion
9643 9644 9645 9651 3 20.50160 0.00000 -20.50160 0.00000 0.00000 0.00000 ; imides
9644 9645 9646 9647 3 25.47638 0.00000 -25.47638 0.00000 0.00000 0.00000 ; amides O-C(O)-N-C
9644 9645 9646 9649 3
9644 9645 9646 9650 3
9645 9646 9647 9648 3 16.73600 4.18400 -20.92000 0.00000 0.00000 0.00000 ; carbamates
9649 9646 9647 9648 3
9650 9646 9647 9648 3
9651 9645 9646 9647 3 20.50160 0.00000 -20.50160 0.00000 0.00000 0.00000 ; amides wlj 6/20/97
9651 9645 9646 9649 3
9651 9645 9646 9650 3
9653 9654 9655 9656 3 33.20422 0.00000 -33.20422 0.00000 0.00000 0.00000 ; methylguanidinium ion
9653 9654 9655 9659 3 20.50160 0.00000 -20.50160 0.00000 0.00000 0.00000 ; imides
9654 9655 9656 9657 3
9654 9655 9656 9658 3
9659 9655 9656 9657 3
9659 9655 9656 9658 3
9661 9662 9663 9664 3 33.20422 0.00000 -33.20422 0.00000 0.00000 0.00000 ; methylguanidinium ion
9661 9662 9663 9667 3 20.50160 0.00000 -20.50160 0.00000 0.00000 0.00000 ; imides
9662 9663 9664 9665 3
9662 9663 9664 9666 3
9667 9663 9664 9665 3
9667 9663 9664 9666 3
9669 9670 9671 9672 3 33.20422 0.00000 -33.20422 0.00000 0.00000 0.00000 ; methylguanidinium ion
9669 9670 9671 9675 3 20.50160 0.00000 -20.50160 0.00000 0.00000 0.00000 ; imides
9670 9671 9672 9673 3
9670 9671 9672 9674 3
9675 9671 9672 9673 3
9675 9671 9672 9674 3
9677 9678 9679 9680 3 33.20422 0.00000 -33.20422 0.00000 0.00000 0.00000 ; methylguanidinium ion
9677 9678 9679 9683 3 20.50160 0.00000 -20.50160 0.00000 0.00000 0.00000 ; imides
9678 9679 9680 9681 3
9678 9679 9680 9682 3
9683 9679 9680 9681 3
9683 9679 9680 9682 3
9685 9686 9687 9688 3 33.20422 0.00000 -33.20422 0.00000 0.00000 0.00000 ; methylguanidinium ion
9685 9686 9687 9691 3 20.50160 0.00000 -20.50160 0.00000 0.00000 0.00000 ; imides
9686 9687 9688 9689 3
9686 9687 9688 9690 3
9691 9687 9688 9689 3
9691 9687 9688 9690 3
9693 9694 9695 9696 3 33.20422 0.00000 -33.20422 0.00000 0.00000 0.00000 ; methylguanidinium ion
9693 9694 9695 9699 3 20.50160 0.00000 -20.50160 0.00000 0.00000 0.00000 ; imides
9694 9695 9696 9697 3
9694 9695 9696 9698 3
9699 9695 9696 9697 3
9699 9695 9696 9698 3
9701 9702 9703 9704 3 33.20422 0.00000 -33.20422 0.00000 0.00000 0.00000 ; methylguanidinium ion
9701 9702 9703 9707 3 20.50160 0.00000 -20.50160 0.00000 0.00000 0.00000 ; imides
9702 9703 9704 9705 3
9702 9703 9704 9706 3
9707 9703 9704 9705 3
9707 9703 9704 9706 3
9709 9710 9711 9712 3 33.20422 0.00000 -33.20422 0.00000 0.00000 0.00000 ; methylguanidinium ion
9709 9710 9711 9716 3 20.50160 0.00000 -20.50160 0.00000 0.00000 0.00000 ; imides
9710 9711 9712 9713 3 25.47638 0.00000 -25.47638 0.00000 0.00000 0.00000 ; amides O-C(O)-N-C
9710 9711 9712 9714 3
9710 9711 9712 9715 3
9716 9711 9712 9713 3 20.50160 0.00000 -20.50160 0.00000 0.00000 0.00000 ; amides wlj 6/20/97
9716 9711 9712 9714 3
9716 9711 9712 9715 3
9718 9719 9720 9721 3 33.20422 0.00000 -33.20422 0.00000 0.00000 0.00000 ; methylguanidinium ion
9718 9719 9720 9724 3 20.50160 0.00000 -20.50160 0.00000 0.00000 0.00000 ; imides
9719 9720 9721 9722 3
9719 9720 9721 9723 3
9724 9720 9721 9722 3
9724 9720 9721 9723 3
9726 9727 9728 9729 3 33.20422 0.00000 -33.20422 0.00000 0.00000 0.00000 ; methylguanidinium ion
9726 9727 9728 9732 3 20.50160 0.00000 -20.50160 0.00000 0.00000 0.00000 ; imides
9727 9728 9729 9730 3
9727 9728 9729 9731 3
9732 9728 9729 9730 3
9732 9728 9729 9731 3
9734 9735 9736 9737 3 33.20422 0.00000 -33.20422 0.00000 0.00000 0.00000 ; methylguanidinium ion
9734 9735 9736 9740 3 20.50160 0.00000 -20.50160 0.00000 0.00000 0.00000 ; imides
9735 9736 9737 9738 3
9735 9736 9737 9739 3
9740 9736 9737 9738 3
9740 9736 9737 9739 3
9742 9743 9744 9745 3 33.20422 0.00000 -33.20422 0.00000 0.00000 0.00000 ; methylguanidinium ion
9742 9743 9744 9749 3 20.50160 0.00000 -20.50160 0.00000 0.00000 0.00000 ; imides
9743 9744 9745 9746 3 25.47638 0.00000 -25.47638 0.00000 0.00000 0.00000 ; amides O-C(O)-N-C
9743 9744 9745 9747 3
9743 9744 9745 9748 3
9749 9744 9745 9746 3 20.50160 0.00000 -20.50160 0.00000 0.00000 0.00000 ; amides wlj 6/20/97
9749 9744 9745 9747 3
9749 9744 9745 9748 3
9751 9752 9753 9754 3 33.20422 0.00000 -33.20422 0.00000 0.00000 0.00000 ; methylguanidinium ion
9751 9752 9753 9757 3 20.50160 0.00000 -20.50160 0.00000 0.00000 0.00000 ; imides
9752 9753 9754 9755 3
9752 9753 9754 9756 3
9757 9753 9754 9755 3
9757 9753 9754 9756 3
9759 9760 9761 9762 3 33.20422 0.00000 -33.20422 0.00000 0.00000 0.00000 ; methylguanidinium ion
9759 9760 9761 9767 3 20.50160 0.00000 -20.50160 0.00000 0.00000 0.00000 ; imides
9760 9761 9762 9763 3 25.47638 0.00000 -25.47638 0.00000 0.00000 0.00000 ; amides O-C(O)-N-C
9760 9761 9762 9765 3
9760 9761 9762 9766 3
9761 9762 9763 9764 3 16.73600 4.18400 -20.92000 0.00000 0.00000 0.00000 ; carbamates
9765 9762 9763 9764 3
9766 9762 9763 9764 3
9767 9761 9762 9763 3 20.50160 0.00000 -20.50160 0.00000 0.00000 0.00000 ; amides wlj 6/20/97
9767 9761 9762 9765 3
9767 9761 9762 9766 3
9769 9770 9771 9772 3 33.20422 0.00000 -33.20422 0.00000 0.00000 0.00000 ; methylguanidinium ion
9769 9770 9771 9776 3 20.50160 0.00000 -20.50160 0.00000 0.00000 0.00000 ; imides
9770 9771 9772 9773 3 25.47638 0.00000 -25.47638 0.00000 0.00000 0.00000 ; amides O-C(O)-N-C
9770 9771 9772 9774 3
9770 9771 9772 9775 3
9776 9771 9772 9773 3 20.50160 0.00000 -20.50160 0.00000 0.00000 0.00000 ; amides wlj 6/20/97
9776 9771 9772 9774 3
9776 9771 9772 9775 3
9778 9779 9780 9781 3 33.20422 0.00000 -33.20422 0.00000 0.00000 0.00000 ; methylguanidinium ion
9778 9779 9780 9784 3 20.50160 0.00000 -20.50160 0.00000 0.00000 0.00000 ; imides
9779 9780 9781 9782 3
9779 9780 9781 9783 3
9784 9780 9781 9782 3
9784 9780 9781 9783 3
9786 9787 9788 9789 3 33.20422 0.00000 -33.20422 0.00000 0.00000 0.00000 ; methylguanidinium ion
9786 9787 9788 9793 3 20.50160 0.00000 -20.50160 0.00000 0.00000 0.00000 ; imides
9787 9788 9789 9790 3 25.47638 0.00000 -25.47638 0.00000 0.00000 0.00000 ; amides O-C(O)-N-C
9787 9788 9789 9791 3
9787 9788 9789 9792 3
9793 9788 9789 9790 3 20.50160 0.00000 -20.50160 0.00000 0.00000 0.00000 ; amides wlj 6/20/97
9793 9788 9789 9791 3
9793 9788 9789 9792 3
9795 9796 9797 9798 3 33.20422 0.00000 -33.20422 0.00000 0.00000 0.00000 ; methylguanidinium ion
9795 9796 9797 9803 3 20.50160 0.00000 -20.50160 0.00000 0.00000 0.00000 ; imides
9796 9797 9798 9799 3 25.47638 0.00000 -25.47638 0.00000 0.00000 0.00000 ; amides O-C(O)-N-C
9796 9797 9798 9801 3
9796 9797 9798 9802 3
9797 9798 9799 9800 3 16.73600 4.18400 -20.92000 0.00000 0.00000 0.00000 ; carbamates
9801 9798 9799 9800 3
9802 9798 9799 9800 3
9803 9797 9798 9799 3 20.50160 0.00000 -20.50160 0.00000 0.00000 0.00000 ; amides wlj 6/20/97
9803 9797 9798 9801 3
9803 9797 9798 9802 3
9805 9806 9807 9808 3 33.20422 0.00000 -33.20422 0.00000 0.00000 0.00000 ; methylguanidinium ion
9805 9806 9807 9813 3 20.50160 0.00000 -20.50160 0.00000 0.00000 0.00000 ; imides
9806 9807 9808 9809 3 25.47638 0.00000 -25.47638 0.00000 0.00000 0.00000 ; amides O-C(O)-N-C
9806 9807 9808 9811 3
9806 9807 9808 9812 3
9807 9808 9809 9810 3 16.73600 4.18400 -20.92000 0.00000 0.00000 0.00000 ; carbamates
9811 9808 9809 9810 3
9812 9808 9809 9810 3
9813 9807 9808 9809 3 20.50160 0.00000 -20.50160 0.00000 0.00000 0.00000 ; amides wlj 6/20/97
9813 9807 9808 9811 3
9813 9807 9808 9812 3
9815 9816 9817 9818 3 33.20422 0.00000 -33.20422 0.00000 0.00000 0.00000 ; methylguanidinium ion
9815 9816 9817 9822 3 20.50160 0.00000 -20.50160 0.00000 0.00000 0.00000 ; imides
9816 9817 9818 9819 3 25.47638 0.00000 -25.47638 0.00000 0.00000 0.00000 ; amides O-C(O)-N-C
9816 9817 9818 9820 3
9816 9817 9818 9821 3
9822 9817 9818 9819 3 20.50160 0.00000 -20.50160 0.00000 0.00000 0.00000 ; amides wlj 6/20/97
9822 9817 9818 9820 3
9822 9817 9818 9821 3
9824 9825 9826 9827 3 33.20422 0.00000 -33.20422 0.00000 0.00000 0.00000 ; methylguanidinium ion
9824 9825 9826 9831 3 20.50160 0.00000 -20.50160 0.00000 0.00000 0.00000 ; imides
9825 9826 9827 9828 3 25.47638 0.00000 -25.47638 0.00000 0.00000 0.00000 ; amides O-C(O)-N-C
9825 9826 9827 9829 3
9825 9826 9827 9830 3
9831 9826 9827 9828 3 20.50160 0.00000 -20.50160 0.00000 0.00000 0.00000 ; amides wlj 6/20/97
9831 9826 9827 9829 3
9831 9826 9827 9830 3
9833 9834 9835 9836 3 33.20422 0.00000 -33.20422 0.00000 0.00000 0.00000 ; methylguanidinium ion
9833 9834 9835 9839 3 20.50160 0.00000 -20.50160 0.00000 0.00000 0.00000 ; imides
9834 9835 9836 9837 3
9834 9835 9836 9838 3
9839 9835 9836 9837 3
9839 9835 9836 9838 3
9841 9842 9843 9844 3 33.20422 0.00000 -33.20422 0.00000 0.00000 0.00000 ; methylguanidinium ion
9841 9842 9843 9848 3 20.50160 0.00000 -20.50160 0.00000 0.00000 0.00000 ; imides
9842 9843 9844 9845 3 25.47638 0.00000 -25.47638 0.00000 0.00000 0.00000 ; amides O-C(O)-N-C
9842 9843 9844 9846 3
9842 9843 9844 9847 3
9848 9843 9844 9845 3 20.50160 0.00000 -20.50160 0.00000 0.00000 0.00000 ; amides wlj 6/20/97
9848 9843 9844 9846 3
9848 9843 9844 9847 3
9850 9851 9852 9853 3 33.20422 0.00000 -33.20422 0.00000 0.00000 0.00000 ; methylguanidinium ion
9850 9851 9852 9856 3 20.50160 0.00000 -20.50160 0.00000 0.00000 0.00000 ; imides
9851 9852 9853 9854 3
9851 9852 9853 9855 3
9856 9852 9853 9854 3
9856 9852 9853 9855 3
9858 9859 9860 9861 3 33.20422 0.00000 -33.20422 0.00000 0.00000 0.00000 ; methylguanidinium ion
9858 9859 9860 9865 3 20.50160 0.00000 -20.50160 0.00000 0.00000 0.00000 ; imides
9859 9860 9861 9862 3 25.47638 0.00000 -25.47638 0.00000 0.00000 0.00000 ; amides O-C(O)-N-C
9859 9860 9861 9863 3
9859 9860 9861 9864 3
9865 9860 9861 9862 3 20.50160 0.00000 -20.50160 0.00000 0.00000 0.00000 ; amides wlj 6/20/97
9865 9860 9861 9863 3
9865 9860 9861 9864 3
9867 9868 9869 9870 3 33.20422 0.00000 -33.20422 0.00000 0.00000 0.00000 ; methylguanidinium ion
9867 9868 9869 9873 3 20.50160 0.00000 -20.50160 0.00000 0.00000 0.00000 ; imides
9868 9869 9870 9871 3
9868 9869 9870 9872 3
9873 9869 9870 9871 3
9873 9869 9870 9872 3
9875 9876 9877 9878 3 33.20422 0.00000 -33.20422 0.00000 0.00000 0.00000 ; methylguanidinium ion
9875 9876 9877 9883 3 20.50160 0.00000 -20.50160 0.00000 0.00000 0.00000 ; imides
9876 9877 9878 9879 3 25.47638 0.00000 -25.47638 0.00000 0.00000 0.00000 ; amides O-C(O)-N-C
9876 9877 9878 9881 3
9876 9877 9878 9882 3
9877 9878 9879 9880 3 16.73600 4.18400 -20.92000 0.00000 0.00000 0.00000 ; carbamates
9881 9878 9879 9880 3
9882 9878 9879 9880 3
9883 9877 9878 9879 3 20.50160 0.00000 -20.50160 0.00000 0.00000 0.00000 ; amides wlj 6/20/97
9883 9877 9878 9881 3
9883 9877 9878 9882 3
9885 9886 9887 9888 3 33.20422 0.00000 -33.20422 0.00000 0.00000 0.00000 ; methylguanidinium ion
9885 9886 9887 9891 3 20.50160 0.00000 -20.50160 0.00000 0.00000 0.00000 ; imides
9886 9887 9888 9889 3
9886 9887 9888 9890 3
9891 9887 9888 9889 3
9891 9887 9888 9890 3
9893 9894 9895 9896 3 33.20422 0.00000 -33.20422 0.00000 0.00000 0.00000 ; methylguanidinium ion
9893 9894 9895 9899 3 20.50160 0.00000 -20.50160 0.00000 0.00000 0.00000 ; imides
9894 9895 9896 9897 3
9894 9895 9896 9898 3
9899 9895 9896 9897 3
9899 9895 9896 9898 3
9901 9902 9903 9904 3 33.20422 0.00000 -33.20422 0.00000 0.00000 0.00000 ; methylguanidinium ion
9901 9902 9903 9907 3 20.50160 0.00000 -20.50160 0.00000 0.00000 0.00000 ; imides
9902 9903 9904 9905 3
9902 9903 9904 9906 3
9907 9903 9904 9905 3
9907 9903 9904 9906 3
9909 9910 9911 9912 3 33.20422 0.00000 -33.20422 0.00000 0.00000 0.00000 ; methylguanidinium ion
9909 9910 9911 9916 3 20.50160 0.00000 -20.50160 0.00000 0.00000 0.00000 ; imides
9910 9911 9912 9913 3 25.47638 0.00000 -25.47638 0.00000 0.00000 0.00000 ; amides O-C(O)-N-C
9910 9911 9912 9914 3
9910 9911 9912 9915 3
9916 9911 9912 9913 3 20.50160 0.00000 -20.50160 0.00000 0.00000 0.00000 ; amides wlj 6/20/97
9916 9911 9912 9914 3
9916 9911 9912 9915 3
9918 9919 9920 9921 3 33.20422 0.00000 -33.20422 0.00000 0.00000 0.00000 ; methylguanidinium ion
9918 9919 9920 9924 3 20.50160 0.00000 -20.50160 0.00000 0.00000 0.00000 ; imides
9919 9920 9921 9922 3
9919 9920 9921 9923 3
9924 9920 9921 9922 3
9924 9920 9921 9923 3
9926 9927 9928 9929 3 33.20422 0.00000 -33.20422 0.00000 0.00000 0.00000 ; methylguanidinium ion
9926 9927 9928 9932 3 20.50160 0.00000 -20.50160 0.00000 0.00000 0.00000 ; imides
9927 9928 9929 9930 3
9927 9928 9929 9931 3
9932 9928 9929 9930 3
9932 9928 9929 9931 3
9934 9935 9936 9937 3 33.20422 0.00000 -33.20422 0.00000 0.00000 0.00000 ; methylguanidinium ion
9934 9935 9936 9941 3 20.50160 0.00000 -20.50160 0.00000 0.00000 0.00000 ; imides
9935 9936 9937 9938 3 25.47638 0.00000 -25.47638 0.00000 0.00000 0.00000 ; amides O-C(O)-N-C
9935 9936 9937 9939 3
9935 9936 9937 9940 3
9941 9936 9937 9938 3 20.50160 0.00000 -20.50160 0.00000 0.00000 0.00000 ; amides wlj 6/20/97
9941 9936 9937 9939 3
9941 9936 9937 9940 3
9943 9944 9945 9946 3 33.20422 0.00000 -33.20422 0.00000 0.00000 0.00000 ; methylguanidinium ion
9943 9944 9945 9949 3 20.50160 0.00000 -20.50160 0.00000 0.00000 0.00000 ; imides
9944 9945 9946 9947 3
9944 9945 9946 9948 3
9949 9945 9946 9947 3
9949 9945 9946 9948 3
9951 9952 9953 9954 3 33.20422 0.00000 -33.20422 0.00000 0.00000 0.00000 ; methylguanidinium ion
9951 9952 9953 9957 3 20.50160 0.00000 -20.50160 0.00000 0.00000 0.00000 ; imides
9952 9953 9954 9955 3
9952 9953 9954 9956 3
9957 9953 9954 9955 3
9957 9953 9954 9956 3
9959 9960 9961 9962 3 33.20422 0.00000 -33.20422 0.00000 0.00000 0.00000 ; methylguanidinium ion
9959 9960 9961 9965 3 20.50160 0.00000 -20.50160 0.00000 0.00000 0.00000 ; imides
9960 9961 9962 9963 3
9960 9961 9962 9964 3
9965 9961 9962 9963 3
9965 9961 9962 9964 3
9967 9968 9969 9970 3 33.20422 0.00000 -33.20422 0.00000 0.00000 0.00000 ; methylguanidinium ion
9967 9968 9969 9973 3 20.50160 0.00000 -20.50160 0.00000 0.00000 0.00000 ; imides
9968 9969 9970 9971 3
9968 9969 9970 9972 3
9973 9969 9970 9971 3
9973 9969 9970 9972 3
9975 9976 9977 9978 3 33.20422 0.00000 -33.20422 0.00000 0.00000 0.00000 ; methylguanidinium ion
9975 9976 9977 9981 3 20.50160 0.00000 -20.50160 0.00000 0.00000 0.00000 ; imides
9976 9977 9978 9979 3
9976 9977 9978 9980 3
9981 9977 9978 9979 3
9981 9977 9978 9980 3
9983 9984 9985 9986 3 33.20422 0.00000 -33.20422 0.00000 0.00000 0.00000 ; methylguanidinium ion
9983 9984 9985 9990 3 20.50160 0.00000 -20.50160 0.00000 0.00000 0.00000 ; imides
9984 9985 9986 9987 3 25.47638 0.00000 -25.47638 0.00000 0.00000 0.00000 ; amides O-C(O)-N-C
9984 9985 9986 9988 3
9984 9985 9986 9989 3
9990 9985 9986 9987 3 20.50160 0.00000 -20.50160 0.00000 0.00000 0.00000 ; amides wlj 6/20/97
9990 9985 9986 9988 3
9990 9985 9986 9989 3
9992 9993 9994 9995 3 33.20422 0.00000 -33.20422 0.00000 0.00000 0.00000 ; methylguanidinium ion
9992 9993 9994 9998 3 20.50160 0.00000 -20.50160 0.00000 0.00000 0.00000 ; imides
9993 9994 9995 9996 3
9993 9994 9995 9997 3
9998 9994 9995 9996 3
9998 9994 9995 9997 3
10000 10001 10002 10003 3 33.20422 0.00000 -33.20422 0.00000 0.00000 0.00000 ; methylguanidinium ion
10000 10001 10002 10007 3 20.50160 0.00000 -20.50160 0.00000 0.00000 0.00000 ; imides
10001 10002 10003 10004 3 25.47638 0.00000 -25.47638 0.00000 0.00000 0.00000 ; amides O-C(O)-N-C
10001 10002 10003 10005 3
10001 10002 10003 10006 3
10007 10002 10003 10004 3 20.50160 0.00000 -20.50160 0.00000 0.00000 0.00000 ; amides wlj 6/20/97
10007 10002 10003 10005 3
10007 10002 10003 10006 3
10009 10010 10011 10012 3 33.20422 0.00000 -33.20422 0.00000 0.00000 0.00000 ; methylguanidinium ion
10009 10010 10011 10015 3 20.50160 0.00000 -20.50160 0.00000 0.00000 0.00000 ; imides
10010 10011 10012 10013 3
10010 10011 10012 10014 3
10015 10011 10012 10013 3
10015 10011 10012 10014 3
10017 10018 10019 10020 3 33.20422 0.00000 -33.20422 0.00000 0.00000 0.00000 ; methylguanidinium ion
10017 10018 10019 10023 3 20.50160 0.00000 -20.50160 0.00000 0.00000 0.00000 ; imides
10018 10019 10020 10021 3
10018 10019 10020 10022 3
10023 10019 10020 10021 3
10023 10019 10020 10022 3
10025 10026 10027 10028 3 33.20422 0.00000 -33.20422 0.00000 0.00000 0.00000 ; methylguanidinium ion
10025 10026 10027 10031 3 20.50160 0.00000 -20.50160 0.00000 0.00000 0.00000 ; imides
10026 10027 10028 10029 3
10026 10027 10028 10030 3
10031 10027 10028 10029 3
10031 10027 10028 10030 3
10033 10034 10035 10036 3 33.20422 0.00000 -33.20422 0.00000 0.00000 0.00000 ; methylguanidinium ion
10033 10034 10035 10040 3 20.50160 0.00000 -20.50160 0.00000 0.00000 0.00000 ; imides
10034 10035 10036 10037 3 25.47638 0.00000 -25.47638 0.00000 0.00000 0.00000 ; amides O-C(O)-N-C
10034 10035 10036 10038 3
10034 10035 10036 10039 3
10040 10035 10036 10037 3 20.50160 0.00000 -20.50160 0.00000 0.00000 0.00000 ; amides wlj 6/20/97
10040 10035 10036 10038 3
10040 10035 10036 10039 3
10042 10043 10044 10045 3 33.20422 0.00000 -33.20422 0.00000 0.00000 0.00000 ; methylguanidinium ion
10042 10043 10044 10048 3 20.50160 0.00000 -20.50160 0.00000 0.00000 0.00000 ; imides
10043 10044 10045 10046 3
10043 10044 10045 10047 3
10048 10044 10045 10046 3
10048 10044 10045 10047 3
10050 10051 10052 10053 3 33.20422 0.00000 -33.20422 0.00000 0.00000 0.00000 ; methylguanidinium ion
10050 10051 10052 10056 3 20.50160 0.00000 -20.50160 0.00000 0.00000 0.00000 ; imides
10051 10052 10053 10054 3
10051 10052 10053 10055 3
10056 10052 10053 10054 3
10056 10052 10053 10055 3
10058 10059 10060 10061 3 33.20422 0.00000 -33.20422 0.00000 0.00000 0.00000 ; methylguanidinium ion
10058 10059 10060 10064 3 20.50160 0.00000 -20.50160 0.00000 0.00000 0.00000 ; imides
10059 10060 10061 10062 3
10059 10060 10061 10063 3
10064 10060 10061 10062 3
10064 10060 10061 10063 3
10066 10067 10068 10069 3 33.20422 0.00000 -33.20422 0.00000 0.00000 0.00000 ; methylguanidinium ion
10066 10067 10068 10073 3 20.50160 0.00000 -20.50160 0.00000 0.00000 0.00000 ; imides
10067 10068 10069 10070 3 25.47638 0.00000 -25.47638 0.00000 0.00000 0.00000 ; amides O-C(O)-N-C
10067 10068 10069 10071 3
10067 10068 10069 10072 3
10073 10068 10069 10070 3 20.50160 0.00000 -20.50160 0.00000 0.00000 0.00000 ; amides wlj 6/20/97
10073 10068 10069 10071 3
10073 10068 10069 10072 3
10075 10076 10077 10078 3 33.20422 0.00000 -33.20422 0.00000 0.00000 0.00000 ; methylguanidinium ion
10075 10076 10077 10081 3 20.50160 0.00000 -20.50160 0.00000 0.00000 0.00000 ; imides
10076 10077 10078 10079 3
10076 10077 10078 10080 3
10081 10077 10078 10079 3
10081 10077 10078 10080 3
10083 10084 10085 10086 3 33.20422 0.00000 -33.20422 0.00000 0.00000 0.00000 ; methylguanidinium ion
10083 10084 10085 10089 3 20.50160 0.00000 -20.50160 0.00000 0.00000 0.00000 ; imides
10084 10085 10086 10087 3
10084 10085 10086 10088 3
10089 10085 10086 10087 3
10089 10085 10086 10088 3
10091 10092 10093 10094 3 33.20422 0.00000 -33.20422 0.00000 0.00000 0.00000 ; methylguanidinium ion
10091 10092 10093 10097 3 20.50160 0.00000 -20.50160 0.00000 0.00000 0.00000 ; imides
10092 10093 10094 10095 3
10092 10093 10094 10096 3
10097 10093 10094 10095 3
10097 10093 10094 10096 3
10099 10100 10101 10102 3 33.20422 0.00000 -33.20422 0.00000 0.00000 0.00000 ; methylguanidinium ion
10099 10100 10101 10105 3 20.50160 0.00000 -20.50160 0.00000 0.00000 0.00000 ; imides
10100 10101 10102 10103 3
10100 10101 10102 10104 3
10105 10101 10102 10103 3
10105 10101 10102 10104 3
10107 10108 10109 10110 3 33.20422 0.00000 -33.20422 0.00000 0.00000 0.00000 ; methylguanidinium ion
10107 10108 10109 10113 3 20.50160 0.00000 -20.50160 0.00000 0.00000 0.00000 ; imides
10108 10109 10110 10111 3
10108 10109 10110 10112 3
10113 10109 10110 10111 3
10113 10109 10110 10112 3
10115 10116 10117 10118 3 33.20422 0.00000 -33.20422 0.00000 0.00000 0.00000 ; methylguanidinium ion
10115 10116 10117 10122 3 20.50160 0.00000 -20.50160 0.00000 0.00000 0.00000 ; imides
10116 10117 10118 10119 3 25.47638 0.00000 -25.47638 0.00000 0.00000 0.00000 ; amides O-C(O)-N-C
10116 10117 10118 10120 3
10116 10117 10118 10121 3
10122 10117 10118 10119 3 20.50160 0.00000 -20.50160 0.00000 0.00000 0.00000 ; amides wlj 6/20/97
10122 10117 10118 10120 3
10122 10117 10118 10121 3
10124 10125 10126 10127 3 33.20422 0.00000 -33.20422 0.00000 0.00000 0.00000 ; methylguanidinium ion
10124 10125 10126 10130 3 20.50160 0.00000 -20.50160 0.00000 0.00000 0.00000 ; imides
10125 10126 10127 10128 3
10125 10126 10127 10129 3
10130 10126 10127 10128 3
10130 10126 10127 10129 3
10132 10133 10134 10135 3 33.20422 0.00000 -33.20422 0.00000 0.00000 0.00000 ; methylguanidinium ion
10132 10133 10134 10138 3 20.50160 0.00000 -20.50160 0.00000 0.00000 0.00000 ; imides
10133 10134 10135 10136 3
10133 10134 10135 10137 3
10138 10134 10135 10136 3
10138 10134 10135 10137 3
10140 10141 10142 10143 3 33.20422 0.00000 -33.20422 0.00000 0.00000 0.00000 ; methylguanidinium ion
10140 10141 10142 10146 3 20.50160 0.00000 -20.50160 0.00000 0.00000 0.00000 ; imides
10141 10142 10143 10144 3
10141 10142 10143 10145 3
10146 10142 10143 10144 3
10146 10142 10143 10145 3
10148 10149 10150 10151 3 33.20422 0.00000 -33.20422 0.00000 0.00000 0.00000 ; methylguanidinium ion
10148 10149 10150 10154 3 20.50160 0.00000 -20.50160 0.00000 0.00000 0.00000 ; imides
10149 10150 10151 10152 3
10149 10150 10151 10153 3
10154 10150 10151 10152 3
10154 10150 10151 10153 3
10156 10157 10158 10159 3 33.20422 0.00000 -33.20422 0.00000 0.00000 0.00000 ; methylguanidinium ion
10156 10157 10158 10162 3 20.50160 0.00000 -20.50160 0.00000 0.00000 0.00000 ; imides
10157 10158 10159 10160 3
10157 10158 10159 10161 3
10162 10158 10159 10160 3
10162 10158 10159 10161 3
10164 10165 10166 10167 3 33.20422 0.00000 -33.20422 0.00000 0.00000 0.00000 ; methylguanidinium ion
10164 10165 10166 10170 3 20.50160 0.00000 -20.50160 0.00000 0.00000 0.00000 ; imides
10165 10166 10167 10168 3
10165 10166 10167 10169 3
10170 10166 10167 10168 3
10170 10166 10167 10169 3
10172 10173 10174 10175 3 33.20422 0.00000 -33.20422 0.00000 0.00000 0.00000 ; methylguanidinium ion
10172 10173 10174 10178 3 20.50160 0.00000 -20.50160 0.00000 0.00000 0.00000 ; imides
10173 10174 10175 10176 3
10173 10174 10175 10177 3
10178 10174 10175 10176 3
10178 10174 10175 10177 3
10180 10181 10182 10183 3 33.20422 0.00000 -33.20422 0.00000 0.00000 0.00000 ; methylguanidinium ion
10180 10181 10182 10186 3 20.50160 0.00000 -20.50160 0.00000 0.00000 0.00000 ; imides
10181 10182 10183 10184 3
10181 10182 10183 10185 3
10186 10182 10183 10184 3
10186 10182 10183 10185 3
10188 10189 10190 10191 3 33.20422 0.00000 -33.20422 0.00000 0.00000 0.00000 ; methylguanidinium ion
10188 10189 10190 10194 3 20.50160 0.00000 -20.50160 0.00000 0.00000 0.00000 ; imides
10189 10190 10191 10192 3
10189 10190 10191 10193 3
10194 10190 10191 10192 3
10194 10190 10191 10193 3
10196 10197 10198 10199 3 33.20422 0.00000 -33.20422 0.00000 0.00000 0.00000 ; methylguanidinium ion
10196 10197 10198 10204 3 20.50160 0.00000 -20.50160 0.00000 0.00000 0.00000 ; imides
10197 10198 10199 10200 3 25.47638 0.00000 -25.47638 0.00000 0.00000 0.00000 ; amides O-C(O)-N-C
10197 10198 10199 10202 3
10197 10198 10199 10203 3
10198 10199 10200 10201 3 16.73600 4.18400 -20.92000 0.00000 0.00000 0.00000 ; carbamates
10202 10199 10200 10201 3
10203 10199 10200 10201 3
10204 10198 10199 10200 3 20.50160 0.00000 -20.50160 0.00000 0.00000 0.00000 ; amides wlj 6/20/97
10204 10198 10199 10202 3
10204 10198 10199 10203 3
10206 10207 10208 10209 3 33.20422 0.00000 -33.20422 0.00000 0.00000 0.00000 ; methylguanidinium ion
10206 10207 10208 10212 3 20.50160 0.00000 -20.50160 0.00000 0.00000 0.00000 ; imides
10207 10208 10209 10210 3
10207 10208 10209 10211 3
10212 10208 10209 10210 3
10212 10208 10209 10211 3
10214 10215 10216 10217 3 33.20422 0.00000 -33.20422 0.00000 0.00000 0.00000 ; methylguanidinium ion
10214 10215 10216 10220 3 20.50160 0.00000 -20.50160 0.00000 0.00000 0.00000 ; imides
10215 10216 10217 10218 3
10215 10216 10217 10219 3
10220 10216 10217 10218 3
10220 10216 10217 10219 3
10222 10223 10224 10225 3 33.20422 0.00000 -33.20422 0.00000 0.00000 0.00000 ; methylguanidinium ion
10222 10223 10224 10230 3 20.50160 0.00000 -20.50160 0.00000 0.00000 0.00000 ; imides
10223 10224 10225 10226 3 25.47638 0.00000 -25.47638 0.00000 0.00000 0.00000 ; amides O-C(O)-N-C
10223 10224 10225 10228 3
10223 10224 10225 10229 3
10224 10225 10226 10227 3 16.73600 4.18400 -20.92000 0.00000 0.00000 0.00000 ; carbamates
10228 10225 10226 10227 3
10229 10225 10226 10227 3
10230 10224 10225 10226 3 20.50160 0.00000 -20.50160 0.00000 0.00000 0.00000 ; amides wlj 6/20/97
10230 10224 10225 10228 3
10230 10224 10225 10229 3
10232 10233 10234 10235 3 33.20422 0.00000 -33.20422 0.00000 0.00000 0.00000 ; methylguanidinium ion
10232 10233 10234 10238 3 20.50160 0.00000 -20.50160 0.00000 0.00000 0.00000 ; imides
10233 10234 10235 10236 3
10233 10234 10235 10237 3
10238 10234 10235 10236 3
10238 10234 10235 10237 3
10240 10241 10242 10243 3 33.20422 0.00000 -33.20422 0.00000 0.00000 0.00000 ; methylguanidinium ion
10240 10241 10242 10246 3 20.50160 0.00000 -20.50160 0.00000 0.00000 0.00000 ; imides
10241 10242 10243 10244 3
10241 10242 10243 10245 3
10246 10242 10243 10244 3
10246 10242 10243 10245 3
10248 10249 10250 10251 3 33.20422 0.00000 -33.20422 0.00000 0.00000 0.00000 ; methylguanidinium ion
10248 10249 10250 10255 3 20.50160 0.00000 -20.50160 0.00000 0.00000 0.00000 ; imides
10249 10250 10251 10252 3 25.47638 0.00000 -25.47638 0.00000 0.00000 0.00000 ; amides O-C(O)-N-C
10249 10250 10251 10253 3
10249 10250 10251 10254 3
10255 10250 10251 10252 3 20.50160 0.00000 -20.50160 0.00000 0.00000 0.00000 ; amides wlj 6/20/97
10255 10250 10251 10253 3
10255 10250 10251 10254 3
10257 10258 10259 10260 3 33.20422 0.00000 -33.20422 0.00000 0.00000 0.00000 ; methylguanidinium ion
10257 10258 10259 10263 3 20.50160 0.00000 -20.50160 0.00000 0.00000 0.00000 ; imides
10258 10259 10260 10261 3
10258 10259 10260 10262 3
10263 10259 10260 10261 3
10263 10259 10260 10262 3
10265 10266 10267 10268 3 33.20422 0.00000 -33.20422 0.00000 0.00000 0.00000 ; methylguanidinium ion
10265 10266 10267 10271 3 20.50160 0.00000 -20.50160 0.00000 0.00000 0.00000 ; imides
10266 10267 10268 10269 3
10266 10267 10268 10270 3
10271 10267 10268 10269 3
10271 10267 10268 10270 3
10273 10274 10275 10276 3 33.20422 0.00000 -33.20422 0.00000 0.00000 0.00000 ; methylguanidinium ion
10273 10274 10275 10279 3 20.50160 0.00000 -20.50160 0.00000 0.00000 0.00000 ; imides
10274 10275 10276 10277 3
10274 10275 10276 10278 3
10279 10275 10276 10277 3
10279 10275 10276 10278 3
10281 10282 10283 10284 3 33.20422 0.00000 -33.20422 0.00000 0.00000 0.00000 ; methylguanidinium ion
10281 10282 10283 10287 3 20.50160 0.00000 -20.50160 0.00000 0.00000 0.00000 ; imides
10282 10283 10284 10285 3
10282 10283 10284 10286 3
10287 10283 10284 10285 3
10287 10283 10284 10286 3
10289 10290 10291 10292 3 33.20422 0.00000 -33.20422 0.00000 0.00000 0.00000 ; methylguanidinium ion
10289 10290 10291 10295 3 20.50160 0.00000 -20.50160 0.00000 0.00000 0.00000 ; imides
10290 10291 10292 10293 3
10290 10291 10292 10294 3
10295 10291 10292 10293 3
10295 10291 10292 10294 3
10297 10298 10299 10300 3 33.20422 0.00000 -33.20422 0.00000 0.00000 0.00000 ; methylguanidinium ion
10297 10298 10299 10303 3 20.50160 0.00000 -20.50160 0.00000 0.00000 0.00000 ; imides
10298 10299 10300 10301 3
10298 10299 10300 10302 3
10303 10299 10300 10301 3
10303 10299 10300 10302 3
10305 10306 10307 10308 3 33.20422 0.00000 -33.20422 0.00000 0.00000 0.00000 ; methylguanidinium ion
10305 10306 10307 10312 3 20.50160 0.00000 -20.50160 0.00000 0.00000 0.00000 ; imides
10306 10307 10308 10309 3 25.47638 0.00000 -25.47638 0.00000 0.00000 0.00000 ; amides O-C(O)-N-C
10306 10307 10308 10310 3
10306 10307 10308 10311 3
10312 10307 10308 10309 3 20.50160 0.00000 -20.50160 0.00000 0.00000 0.00000 ; amides wlj 6/20/97
10312 10307 10308 10310 3
10312 10307 10308 10311 3
10314 10315 10316 10317 3 33.20422 0.00000 -33.20422 0.00000 0.00000 0.00000 ; methylguanidinium ion
10314 10315 10316 10320 3 20.50160 0.00000 -20.50160 0.00000 0.00000 0.00000 ; imides
10315 10316 10317 10318 3
10315 10316 10317 10319 3
10320 10316 10317 10318 3
10320 10316 10317 10319 3
10322 10323 10324 10325 3 33.20422 0.00000 -33.20422 0.00000 0.00000 0.00000 ; methylguanidinium ion
10322 10323 10324 10328 3 20.50160 0.00000 -20.50160 0.00000 0.00000 0.00000 ; imides
10323 10324 10325 10326 3
10323 10324 10325 10327 3
10328 10324 10325 10326 3
10328 10324 10325 10327 3
10330 10331 10332 10333 3 33.20422 0.00000 -33.20422 0.00000 0.00000 0.00000 ; methylguanidinium ion
10330 10331 10332 10336 3 20.50160 0.00000 -20.50160 0.00000 0.00000 0.00000 ; imides
10331 10332 10333 10334 3
10331 10332 10333 10335 3
10336 10332 10333 10334 3
10336 10332 10333 10335 3
10338 10339 10340 10341 3 33.20422 0.00000 -33.20422 0.00000 0.00000 0.00000 ; methylguanidinium ion
10338 10339 10340 10344 3 20.50160 0.00000 -20.50160 0.00000 0.00000 0.00000 ; imides
10339 10340 10341 10342 3
10339 10340 10341 10343 3
10344 10340 10341 10342 3
10344 10340 10341 10343 3
10346 10347 10348 10349 3 33.20422 0.00000 -33.20422 0.00000 0.00000 0.00000 ; methylguanidinium ion
10346 10347 10348 10352 3 20.50160 0.00000 -20.50160 0.00000 0.00000 0.00000 ; imides
10347 10348 10349 10350 3
10347 10348 10349 10351 3
10352 10348 10349 10350 3
10352 10348 10349 10351 3
10354 10355 10356 10357 3 33.20422 0.00000 -33.20422 0.00000 0.00000 0.00000 ; methylguanidinium ion
10354 10355 10356 10361 3 20.50160 0.00000 -20.50160 0.00000 0.00000 0.00000 ; imides
10355 10356 10357 10358 3 25.47638 0.00000 -25.47638 0.00000 0.00000 0.00000 ; amides O-C(O)-N-C
10355 10356 10357 10359 3
10355 10356 10357 10360 3
10361 10356 10357 10358 3 20.50160 0.00000 -20.50160 0.00000 0.00000 0.00000 ; amides wlj 6/20/97
10361 10356 10357 10359 3
10361 10356 10357 10360 3
10363 10364 10365 10366 3 33.20422 0.00000 -33.20422 0.00000 0.00000 0.00000 ; methylguanidinium ion
10363 10364 10365 10369 3 20.50160 0.00000 -20.50160 0.00000 0.00000 0.00000 ; imides
10364 10365 10366 10367 3
10364 10365 10366 10368 3
10369 10365 10366 10367 3
10369 10365 10366 10368 3
10371 10372 10373 10374 3 33.20422 0.00000 -33.20422 0.00000 0.00000 0.00000 ; methylguanidinium ion
10371 10372 10373 10377 3 20.50160 0.00000 -20.50160 0.00000 0.00000 0.00000 ; imides
10372 10373 10374 10375 3
10372 10373 10374 10376 3
10377 10373 10374 10375 3
10377 10373 10374 10376 3
10379 10380 10381 10382 3 33.20422 0.00000 -33.20422 0.00000 0.00000 0.00000 ; methylguanidinium ion
10379 10380 10381 10386 3 20.50160 0.00000 -20.50160 0.00000 0.00000 0.00000 ; imides
10380 10381 10382 10383 3 25.47638 0.00000 -25.47638 0.00000 0.00000 0.00000 ; amides O-C(O)-N-C
10380 10381 10382 10384 3
10380 10381 10382 10385 3
10386 10381 10382 10383 3 20.50160 0.00000 -20.50160 0.00000 0.00000 0.00000 ; amides wlj 6/20/97
10386 10381 10382 10384 3
10386 10381 10382 10385 3
10388 10389 10390 10391 3 33.20422 0.00000 -33.20422 0.00000 0.00000 0.00000 ; methylguanidinium ion
10388 10389 10390 10394 3 20.50160 0.00000 -20.50160 0.00000 0.00000 0.00000 ; imides
10389 10390 10391 10392 3
10389 10390 10391 10393 3
10394 10390 10391 10392 3
10394 10390 10391 10393 3
10396 10397 10398 10399 3 33.20422 0.00000 -33.20422 0.00000 0.00000 0.00000 ; methylguanidinium ion
10396 10397 10398 10404 3 20.50160 0.00000 -20.50160 0.00000 0.00000 0.00000 ; imides
10397 10398 10399 10400 3 25.47638 0.00000 -25.47638 0.00000 0.00000 0.00000 ; amides O-C(O)-N-C
10397 10398 10399 10402 3
10397 10398 10399 10403 3
10398 10399 10400 10401 3 16.73600 4.18400 -20.92000 0.00000 0.00000 0.00000 ; carbamates
10402 10399 10400 10401 3
10403 10399 10400 10401 3
10404 10398 10399 10400 3 20.50160 0.00000 -20.50160 0.00000 0.00000 0.00000 ; amides wlj 6/20/97
10404 10398 10399 10402 3
10404 10398 10399 10403 3
10406 10407 10408 10409 3 33.20422 0.00000 -33.20422 0.00000 0.00000 0.00000 ; methylguanidinium ion
10406 10407 10408 10412 3 20.50160 0.00000 -20.50160 0.00000 0.00000 0.00000 ; imides
10407 10408 10409 10410 3
10407 10408 10409 10411 3
10412 10408 10409 10410 3
10412 10408 10409 10411 3
10414 10415 10416 10417 3 33.20422 0.00000 -33.20422 0.00000 0.00000 0.00000 ; methylguanidinium ion
10414 10415 10416 10420 3 20.50160 0.00000 -20.50160 0.00000 0.00000 0.00000 ; imides
10415 10416 10417 10418 3
10415 10416 10417 10419 3
10420 10416 10417 10418 3
10420 10416 10417 10419 3
10422 10423 10424 10425 3 33.20422 0.00000 -33.20422 0.00000 0.00000 0.00000 ; methylguanidinium ion
10422 10423 10424 10428 3 20.50160 0.00000 -20.50160 0.00000 0.00000 0.00000 ; imides
10423 10424 10425 10426 3
10423 10424 10425 10427 3
10428 10424 10425 10426 3
10428 10424 10425 10427 3
10430 10431 10432 10433 3 33.20422 0.00000 -33.20422 0.00000 0.00000 0.00000 ; methylguanidinium ion
10430 10431 10432 10437 3 20.50160 0.00000 -20.50160 0.00000 0.00000 0.00000 ; imides
10431 10432 10433 10434 3 25.47638 0.00000 -25.47638 0.00000 0.00000 0.00000 ; amides O-C(O)-N-C
10431 10432 10433 10435 3
10431 10432 10433 10436 3
10437 10432 10433 10434 3 20.50160 0.00000 -20.50160 0.00000 0.00000 0.00000 ; amides wlj 6/20/97
10437 10432 10433 10435 3
10437 10432 10433 10436 3
10439 10440 10441 10442 3 33.20422 0.00000 -33.20422 0.00000 0.00000 0.00000 ; methylguanidinium ion
10439 10440 10441 10447 3 20.50160 0.00000 -20.50160 0.00000 0.00000 0.00000 ; imides
10440 10441 10442 10443 3 25.47638 0.00000 -25.47638 0.00000 0.00000 0.00000 ; amides O-C(O)-N-C
10440 10441 10442 10445 3
10440 10441 10442 10446 3
10441 10442 10443 10444 3 16.73600 4.18400 -20.92000 0.00000 0.00000 0.00000 ; carbamates
10445 10442 10443 10444 3
10446 10442 10443 10444 3
10447 10441 10442 10443 3 20.50160 0.00000 -20.50160 0.00000 0.00000 0.00000 ; amides wlj 6/20/97
10447 10441 10442 10445 3
10447 10441 10442 10446 3
10449 10450 10451 10452 3 33.20422 0.00000 -33.20422 0.00000 0.00000 0.00000 ; methylguanidinium ion
10449 10450 10451 10455 3 20.50160 0.00000 -20.50160 0.00000 0.00000 0.00000 ; imides
10450 10451 10452 10453 3
10450 10451 10452 10454 3
10455 10451 10452 10453 3
10455 10451 10452 10454 3
10457 10458 10459 10460 3 33.20422 0.00000 -33.20422 0.00000 0.00000 0.00000 ; methylguanidinium ion
10457 10458 10459 10463 3 20.50160 0.00000 -20.50160 0.00000 0.00000 0.00000 ; imides
10458 10459 10460 10461 3
10458 10459 10460 10462 3
10463 10459 10460 10461 3
10463 10459 10460 10462 3
10465 10466 10467 10468 3 33.20422 0.00000 -33.20422 0.00000 0.00000 0.00000 ; methylguanidinium ion
10465 10466 10467 10471 3 20.50160 0.00000 -20.50160 0.00000 0.00000 0.00000 ; imides
10466 10467 10468 10469 3
10466 10467 10468 10470 3
10471 10467 10468 10469 3
10471 10467 10468 10470 3
10473 10474 10475 10476 3 33.20422 0.00000 -33.20422 0.00000 0.00000 0.00000 ; methylguanidinium ion
10473 10474 10475 10479 3 20.50160 0.00000 -20.50160 0.00000 0.00000 0.00000 ; imides
10474 10475 10476 10477 3
10474 10475 10476 10478 3
10479 10475 10476 10477 3
10479 10475 10476 10478 3
10481 10482 10483 10484 3 33.20422 0.00000 -33.20422 0.00000 0.00000 0.00000 ; methylguanidinium ion
10481 10482 10483 10487 3 20.50160 0.00000 -20.50160 0.00000 0.00000 0.00000 ; imides
10482 10483 10484 10485 3
10482 10483 10484 10486 3
10487 10483 10484 10485 3
10487 10483 10484 10486 3
10489 10490 10491 10492 3 33.20422 0.00000 -33.20422 0.00000 0.00000 0.00000 ; methylguanidinium ion
10489 10490 10491 10495 3 20.50160 0.00000 -20.50160 0.00000 0.00000 0.00000 ; imides
10490 10491 10492 10493 3
10490 10491 10492 10494 3
10495 10491 10492 10493 3
10495 10491 10492 10494 3
10497 10498 10499 10500 3 33.20422 0.00000 -33.20422 0.00000 0.00000 0.00000 ; methylguanidinium ion
10497 10498 10499 10503 3 20.50160 0.00000 -20.50160 0.00000 0.00000 0.00000 ; imides
10498 10499 10500 10501 3
10498 10499 10500 10502 3
10503 10499 10500 10501 3
10503 10499 10500 10502 3
10505 10506 10507 10508 3 33.20422 0.00000 -33.20422 0.00000 0.00000 0.00000 ; methylguanidinium ion
10505 10506 10507 10511 3 20.50160 0.00000 -20.50160 0.00000 0.00000 0.00000 ; imides
10506 10507 10508 10509 3
10506 10507 10508 10510 3
10511 10507 10508 10509 3
10511 10507 10508 10510 3
10513 10514 10515 10516 3 33.20422 0.00000 -33.20422 0.00000 0.00000 0.00000 ; methylguanidinium ion
10513 10514 10515 10519 3 20.50160 0.00000 -20.50160 0.00000 0.00000 0.00000 ; imides
10514 10515 10516 10517 3
10514 10515 10516 10518 3
10519 10515 10516 10517 3
10519 10515 10516 10518 3
10521 10522 10523 10524 3 33.20422 0.00000 -33.20422 0.00000 0.00000 0.00000 ; methylguanidinium ion
10521 10522 10523 10528 3 20.50160 0.00000 -20.50160 0.00000 0.00000 0.00000 ; imides
10522 10523 10524 10525 3 25.47638 0.00000 -25.47638 0.00000 0.00000 0.00000 ; amides O-C(O)-N-C
10522 10523 10524 10526 3
10522 10523 10524 10527 3
10528 10523 10524 10525 3 20.50160 0.00000 -20.50160 0.00000 0.00000 0.00000 ; amides wlj 6/20/97
10528 10523 10524 10526 3
10528 10523 10524 10527 3
10530 10531 10532 10533 3 33.20422 0.00000 -33.20422 0.00000 0.00000 0.00000 ; methylguanidinium ion
10530 10531 10532 10536 3 20.50160 0.00000 -20.50160 0.00000 0.00000 0.00000 ; imides
10531 10532 10533 10534 3
10531 10532 10533 10535 3
10536 10532 10533 10534 3
10536 10532 10533 10535 3
10538 10539 10540 10541 3 33.20422 0.00000 -33.20422 0.00000 0.00000 0.00000 ; methylguanidinium ion
10538 10539 10540 10544 3 20.50160 0.00000 -20.50160 0.00000 0.00000 0.00000 ; imides
10539 10540 10541 10542 3
10539 10540 10541 10543 3
10544 10540 10541 10542 3
10544 10540 10541 10543 3
10546 10547 10548 10549 3 33.20422 0.00000 -33.20422 0.00000 0.00000 0.00000 ; methylguanidinium ion
10546 10547 10548 10552 3 20.50160 0.00000 -20.50160 0.00000 0.00000 0.00000 ; imides
10547 10548 10549 10550 3
10547 10548 10549 10551 3
10552 10548 10549 10550 3
10552 10548 10549 10551 3
10554 10555 10556 10557 3 33.20422 0.00000 -33.20422 0.00000 0.00000 0.00000 ; methylguanidinium ion
10554 10555 10556 10562 3 20.50160 0.00000 -20.50160 0.00000 0.00000 0.00000 ; imides
10555 10556 10557 10558 3 25.47638 0.00000 -25.47638 0.00000 0.00000 0.00000 ; amides O-C(O)-N-C
10555 10556 10557 10560 3
10555 10556 10557 10561 3
10556 10557 10558 10559 3 16.73600 4.18400 -20.92000 0.00000 0.00000 0.00000 ; carbamates
10560 10557 10558 10559 3
10561 10557 10558 10559 3
10562 10556 10557 10558 3 20.50160 0.00000 -20.50160 0.00000 0.00000 0.00000 ; amides wlj 6/20/97
10562 10556 10557 10560 3
10562 10556 10557 10561 3
10564 10565 10566 10567 3 33.20422 0.00000 -33.20422 0.00000 0.00000 0.00000 ; methylguanidinium ion
10564 10565 10566 10572 3 20.50160 0.00000 -20.50160 0.00000 0.00000 0.00000 ; imides
10565 10566 10567 10568 3 25.47638 0.00000 -25.47638 0.00000 0.00000 0.00000 ; amides O-C(O)-N-C
10565 10566 10567 10570 3
10565 10566 10567 10571 3
10566 10567 10568 10569 3 16.73600 4.18400 -20.92000 0.00000 0.00000 0.00000 ; carbamates
10570 10567 10568 10569 3
10571 10567 10568 10569 3
10572 10566 10567 10568 3 20.50160 0.00000 -20.50160 0.00000 0.00000 0.00000 ; amides wlj 6/20/97
10572 10566 10567 10570 3
10572 10566 10567 10571 3
10574 10575 10576 10577 3 33.20422 0.00000 -33.20422 0.00000 0.00000 0.00000 ; methylguanidinium ion
10574 10575 10576 10580 3 20.50160 0.00000 -20.50160 0.00000 0.00000 0.00000 ; imides
10575 10576 10577 10578 3
10575 10576 10577 10579 3
10580 10576 10577 10578 3
10580 10576 10577 10579 3
10582 10583 10584 10585 3 33.20422 0.00000 -33.20422 0.00000 0.00000 0.00000 ; methylguanidinium ion
10582 10583 10584 10588 3 20.50160 0.00000 -20.50160 0.00000 0.00000 0.00000 ; imides
10583 10584 10585 10586 3
10583 10584 10585 10587 3
10588 10584 10585 10586 3
10588 10584 10585 10587 3
10590 10591 10592 10593 3 33.20422 0.00000 -33.20422 0.00000 0.00000 0.00000 ; methylguanidinium ion
10590 10591 10592 10596 3 20.50160 0.00000 -20.50160 0.00000 0.00000 0.00000 ; imides
10591 10592 10593 10594 3
10591 10592 10593 10595 3
10596 10592 10593 10594 3
10596 10592 10593 10595 3
10598 10599 10600 10601 3 33.20422 0.00000 -33.20422 0.00000 0.00000 0.00000 ; methylguanidinium ion
10598 10599 10600 10604 3 20.50160 0.00000 -20.50160 0.00000 0.00000 0.00000 ; imides
10599 10600 10601 10602 3
10599 10600 10601 10603 3
10604 10600 10601 10602 3
10604 10600 10601 10603 3
10606 10607 10608 10609 3 33.20422 0.00000 -33.20422 0.00000 0.00000 0.00000 ; methylguanidinium ion
10606 10607 10608 10612 3 20.50160 0.00000 -20.50160 0.00000 0.00000 0.00000 ; imides
10607 10608 10609 10610 3
10607 10608 10609 10611 3
10612 10608 10609 10610 3
10612 10608 10609 10611 3
10614 10615 10616 10617 3 33.20422 0.00000 -33.20422 0.00000 0.00000 0.00000 ; methylguanidinium ion
10614 10615 10616 10620 3 20.50160 0.00000 -20.50160 0.00000 0.00000 0.00000 ; imides
10615 10616 10617 10618 3
10615 10616 10617 10619 3
10620 10616 10617 10618 3
10620 10616 10617 10619 3
10622 10623 10624 10625 3 33.20422 0.00000 -33.20422 0.00000 0.00000 0.00000 ; methylguanidinium ion
10622 10623 10624 10628 3 20.50160 0.00000 -20.50160 0.00000 0.00000 0.00000 ; imides
10623 10624 10625 10626 3
10623 10624 10625 10627 3
10628 10624 10625 10626 3
10628 10624 10625 10627 3
10630 10631 10632 10633 3 33.20422 0.00000 -33.20422 0.00000 0.00000 0.00000 ; methylguanidinium ion
10630 10631 10632 10638 3 20.50160 0.00000 -20.50160 0.00000 0.00000 0.00000 ; imides
10631 10632 10633 10634 3 25.47638 0.00000 -25.47638 0.00000 0.00000 0.00000 ; amides O-C(O)-N-C
10631 10632 10633 10636 3
10631 10632 10633 10637 3
10632 10633 10634 10635 3 16.73600 4.18400 -20.92000 0.00000 0.00000 0.00000 ; carbamates
10636 10633 10634 10635 3
10637 10633 10634 10635 3
10638 10632 10633 10634 3 20.50160 0.00000 -20.50160 0.00000 0.00000 0.00000 ; amides wlj 6/20/97
10638 10632 10633 10636 3
10638 10632 10633 10637 3
10640 10641 10642 10643 3 33.20422 0.00000 -33.20422 0.00000 0.00000 0.00000 ; methylguanidinium ion
10640 10641 10642 10646 3 20.50160 0.00000 -20.50160 0.00000 0.00000 0.00000 ; imides
10641 10642 10643 10644 3
10641 10642 10643 10645 3
10646 10642 10643 10644 3
10646 10642 10643 10645 3
10648 10649 10650 10651 3 33.20422 0.00000 -33.20422 0.00000 0.00000 0.00000 ; methylguanidinium ion
10648 10649 10650 10654 3 20.50160 0.00000 -20.50160 0.00000 0.00000 0.00000 ; imides
10649 10650 10651 10652 3
10649 10650 10651 10653 3
10654 10650 10651 10652 3
10654 10650 10651 10653 3
10656 10657 10658 10659 3 33.20422 0.00000 -33.20422 0.00000 0.00000 0.00000 ; methylguanidinium ion
10656 10657 10658 10662 3 20.50160 0.00000 -20.50160 0.00000 0.00000 0.00000 ; imides
10657 10658 10659 10660 3
10657 10658 10659 10661 3
10662 10658 10659 10660 3
10662 10658 10659 10661 3
10664 10665 10666 10667 3 33.20422 0.00000 -33.20422 0.00000 0.00000 0.00000 ; methylguanidinium ion
10664 10665 10666 10670 3 20.50160 0.00000 -20.50160 0.00000 0.00000 0.00000 ; imides
10665 10666 10667 10668 3
10665 10666 10667 10669 3
10670 10666 10667 10668 3
10670 10666 10667 10669 3
10672 10673 10674 10675 3 33.20422 0.00000 -33.20422 0.00000 0.00000 0.00000 ; methylguanidinium ion
10672 10673 10674 10679 3 20.50160 0.00000 -20.50160 0.00000 0.00000 0.00000 ; imides
10673 10674 10675 10676 3 25.47638 0.00000 -25.47638 0.00000 0.00000 0.00000 ; amides O-C(O)-N-C
10673 10674 10675 10677 3
10673 10674 10675 10678 3
10679 10674 10675 10676 3 20.50160 0.00000 -20.50160 0.00000 0.00000 0.00000 ; amides wlj 6/20/97
10679 10674 10675 10677 3
10679 10674 10675 10678 3
10681 10682 10683 10684 3 33.20422 0.00000 -33.20422 0.00000 0.00000 0.00000 ; methylguanidinium ion
10681 10682 10683 10689 3 20.50160 0.00000 -20.50160 0.00000 0.00000 0.00000 ; imides
10682 10683 10684 10685 3 25.47638 0.00000 -25.47638 0.00000 0.00000 0.00000 ; amides O-C(O)-N-C
10682 10683 10684 10687 3
10682 10683 10684 10688 3
10683 10684 10685 10686 3 16.73600 4.18400 -20.92000 0.00000 0.00000 0.00000 ; carbamates
10687 10684 10685 10686 3
10688 10684 10685 10686 3
10689 10683 10684 10685 3 20.50160 0.00000 -20.50160 0.00000 0.00000 0.00000 ; amides wlj 6/20/97
10689 10683 10684 10687 3
10689 10683 10684 10688 3
10691 10692 10693 10694 3 33.20422 0.00000 -33.20422 0.00000 0.00000 0.00000 ; methylguanidinium ion
10691 10692 10693 10698 3 20.50160 0.00000 -20.50160 0.00000 0.00000 0.00000 ; imides
10692 10693 10694 10695 3 25.47638 0.00000 -25.47638 0.00000 0.00000 0.00000 ; amides O-C(O)-N-C
10692 10693 10694 10696 3
10692 10693 10694 10697 3
10698 10693 10694 10695 3 20.50160 0.00000 -20.50160 0.00000 0.00000 0.00000 ; amides wlj 6/20/97
10698 10693 10694 10696 3
10698 10693 10694 10697 3
10700 10701 10702 10703 3 33.20422 0.00000 -33.20422 0.00000 0.00000 0.00000 ; methylguanidinium ion
10700 10701 10702 10706 3 20.50160 0.00000 -20.50160 0.00000 0.00000 0.00000 ; imides
10701 10702 10703 10704 3
10701 10702 10703 10705 3
10706 10702 10703 10704 3
10706 10702 10703 10705 3
10708 10709 10710 10711 3 33.20422 0.00000 -33.20422 0.00000 0.00000 0.00000 ; methylguanidinium ion
10708 10709 10710 10714 3 20.50160 0.00000 -20.50160 0.00000 0.00000 0.00000 ; imides
10709 10710 10711 10712 3
10709 10710 10711 10713 3
10714 10710 10711 10712 3
10714 10710 10711 10713 3
10716 10717 10718 10719 3 33.20422 0.00000 -33.20422 0.00000 0.00000 0.00000 ; methylguanidinium ion
10716 10717 10718 10722 3 20.50160 0.00000 -20.50160 0.00000 0.00000 0.00000 ; imides
10717 10718 10719 10720 3
10717 10718 10719 10721 3
10722 10718 10719 10720 3
10722 10718 10719 10721 3
10724 10725 10726 10727 3 33.20422 0.00000 -33.20422 0.00000 0.00000 0.00000 ; methylguanidinium ion
10724 10725 10726 10731 3 20.50160 0.00000 -20.50160 0.00000 0.00000 0.00000 ; imides
10725 10726 10727 10728 3 25.47638 0.00000 -25.47638 0.00000 0.00000 0.00000 ; amides O-C(O)-N-C
10725 10726 10727 10729 3
10725 10726 10727 10730 3
10731 10726 10727 10728 3 20.50160 0.00000 -20.50160 0.00000 0.00000 0.00000 ; amides wlj 6/20/97
10731 10726 10727 10729 3
10731 10726 10727 10730 3
10733 10734 10735 10736 3 33.20422 0.00000 -33.20422 0.00000 0.00000 0.00000 ; methylguanidinium ion
10733 10734 10735 10739 3 20.50160 0.00000 -20.50160 0.00000 0.00000 0.00000 ; imides
10734 10735 10736 10737 3
10734 10735 10736 10738 3
10739 10735 10736 10737 3
10739 10735 10736 10738 3
10741 10742 10743 10744 3 33.20422 0.00000 -33.20422 0.00000 0.00000 0.00000 ; methylguanidinium ion
10741 10742 10743 10747 3 20.50160 0.00000 -20.50160 0.00000 0.00000 0.00000 ; imides
10742 10743 10744 10745 3
10742 10743 10744 10746 3
10747 10743 10744 10745 3
10747 10743 10744 10746 3
10749 10750 10751 10752 3 33.20422 0.00000 -33.20422 0.00000 0.00000 0.00000 ; methylguanidinium ion
10749 10750 10751 10755 3 20.50160 0.00000 -20.50160 0.00000 0.00000 0.00000 ; imides
10750 10751 10752 10753 3
10750 10751 10752 10754 3
10755 10751 10752 10753 3
10755 10751 10752 10754 3
10757 10758 10759 10760 3 33.20422 0.00000 -33.20422 0.00000 0.00000 0.00000 ; methylguanidinium ion
10757 10758 10759 10763 3 20.50160 0.00000 -20.50160 0.00000 0.00000 0.00000 ; imides
10758 10759 10760 10761 3
10758 10759 10760 10762 3
10763 10759 10760 10761 3
10763 10759 10760 10762 3
10765 10766 10767 10768 3 33.20422 0.00000 -33.20422 0.00000 0.00000 0.00000 ; methylguanidinium ion
10765 10766 10767 10771 3 20.50160 0.00000 -20.50160 0.00000 0.00000 0.00000 ; imides
10766 10767 10768 10769 3
10766 10767 10768 10770 3
10771 10767 10768 10769 3
10771 10767 10768 10770 3
10773 10774 10775 10776 3 33.20422 0.00000 -33.20422 0.00000 0.00000 0.00000 ; methylguanidinium ion
10773 10774 10775 10779 3 20.50160 0.00000 -20.50160 0.00000 0.00000 0.00000 ; imides
10774 10775 10776 10777 3
10774 10775 10776 10778 3
10779 10775 10776 10777 3
10779 10775 10776 10778 3
10781 10782 10783 10784 3 33.20422 0.00000 -33.20422 0.00000 0.00000 0.00000 ; methylguanidinium ion
10781 10782 10783 10787 3 20.50160 0.00000 -20.50160 0.00000 0.00000 0.00000 ; imides
10782 10783 10784 10785 3
10782 10783 10784 10786 3
10787 10783 10784 10785 3
10787 10783 10784 10786 3
10789 10790 10791 10792 3 33.20422 0.00000 -33.20422 0.00000 0.00000 0.00000 ; methylguanidinium ion
10789 10790 10791 10795 3 20.50160 0.00000 -20.50160 0.00000 0.00000 0.00000 ; imides
10790 10791 10792 10793 3
10790 10791 10792 10794 3
10795 10791 10792 10793 3
10795 10791 10792 10794 3
10797 10798 10799 10800 3 33.20422 0.00000 -33.20422 0.00000 0.00000 0.00000 ; methylguanidinium ion
10797 10798 10799 10803 3 20.50160 0.00000 -20.50160 0.00000 0.00000 0.00000 ; imides
10798 10799 10800 10801 3
10798 10799 10800 10802 3
10803 10799 10800 10801 3
10803 10799 10800 10802 3
10805 10806 10807 10808 3 33.20422 0.00000 -33.20422 0.00000 0.00000 0.00000 ; methylguanidinium ion
10805 10806 10807 10812 3 20.50160 0.00000 -20.50160 0.00000 0.00000 0.00000 ; imides
10806 10807 10808 10809 3 25.47638 0.00000 -25.47638 0.00000 0.00000 0.00000 ; amides O-C(O)-N-C
10806 10807 10808 10810 3
10806 10807 10808 10811 3
10812 10807 10808 10809 3 20.50160 0.00000 -20.50160 0.00000 0.00000 0.00000 ; amides wlj 6/20/97
10812 10807 10808 10810 3
10812 10807 10808 10811 3
10814 10815 10816 10817 3 33.20422 0.00000 -33.20422 0.00000 0.00000 0.00000 ; methylguanidinium ion
10814 10815 10816 10821 3 20.50160 0.00000 -20.50160 0.00000 0.00000 0.00000 ; imides
10815 10816 10817 10818 3 25.47638 0.00000 -25.47638 0.00000 0.00000 0.00000 ; amides O-C(O)-N-C
10815 10816 10817 10819 3
10815 10816 10817 10820 3
10821 10816 10817 10818 3 20.50160 0.00000 -20.50160 0.00000 0.00000 0.00000 ; amides wlj 6/20/97
10821 10816 10817 10819 3
10821 10816 10817 10820 3
10823 10824 10825 10826 3 33.20422 0.00000 -33.20422 0.00000 0.00000 0.00000 ; methylguanidinium ion
10823 10824 10825 10829 3 20.50160 0.00000 -20.50160 0.00000 0.00000 0.00000 ; imides
10824 10825 10826 10827 3
10824 10825 10826 10828 3
10829 10825 10826 10827 3
10829 10825 10826 10828 3
10831 10832 10833 10834 3 33.20422 0.00000 -33.20422 0.00000 0.00000 0.00000 ; methylguanidinium ion
10831 10832 10833 10837 3 20.50160 0.00000 -20.50160 0.00000 0.00000 0.00000 ; imides
10832 10833 10834 10835 3
10832 10833 10834 10836 3
10837 10833 10834 10835 3
10837 10833 10834 10836 3
10839 10840 10841 10842 3 33.20422 0.00000 -33.20422 0.00000 0.00000 0.00000 ; methylguanidinium ion
10839 10840 10841 10847 3 20.50160 0.00000 -20.50160 0.00000 0.00000 0.00000 ; imides
10840 10841 10842 10843 3 25.47638 0.00000 -25.47638 0.00000 0.00000 0.00000 ; amides O-C(O)-N-C
10840 10841 10842 10845 3
10840 10841 10842 10846 3
10841 10842 10843 10844 3 16.73600 4.18400 -20.92000 0.00000 0.00000 0.00000 ; carbamates
10845 10842 10843 10844 3
10846 10842 10843 10844 3
10847 10841 10842 10843 3 20.50160 0.00000 -20.50160 0.00000 0.00000 0.00000 ; amides wlj 6/20/97
10847 10841 10842 10845 3
10847 10841 10842 10846 3
10849 10850 10851 10852 3 33.20422 0.00000 -33.20422 0.00000 0.00000 0.00000 ; methylguanidinium ion
10849 10850 10851 10855 3 20.50160 0.00000 -20.50160 0.00000 0.00000 0.00000 ; imides
10850 10851 10852 10853 3
10850 10851 10852 10854 3
10855 10851 10852 10853 3
10855 10851 10852 10854 3
10857 10858 10859 10860 3 33.20422 0.00000 -33.20422 0.00000 0.00000 0.00000 ; methylguanidinium ion
10857 10858 10859 10863 3 20.50160 0.00000 -20.50160 0.00000 0.00000 0.00000 ; imides
10858 10859 10860 10861 3
10858 10859 10860 10862 3
10863 10859 10860 10861 3
10863 10859 10860 10862 3
10865 10866 10867 10868 3 33.20422 0.00000 -33.20422 0.00000 0.00000 0.00000 ; methylguanidinium ion
10865 10866 10867 10872 3 20.50160 0.00000 -20.50160 0.00000 0.00000 0.00000 ; imides
10866 10867 10868 10869 3 25.47638 0.00000 -25.47638 0.00000 0.00000 0.00000 ; amides O-C(O)-N-C
10866 10867 10868 10870 3
10866 10867 10868 10871 3
10872 10867 10868 10869 3 20.50160 0.00000 -20.50160 0.00000 0.00000 0.00000 ; amides wlj 6/20/97
10872 10867 10868 10870 3
10872 10867 10868 10871 3
10874 10875 10876 10877 3 33.20422 0.00000 -33.20422 0.00000 0.00000 0.00000 ; methylguanidinium ion
10874 10875 10876 10880 3 20.50160 0.00000 -20.50160 0.00000 0.00000 0.00000 ; imides
10875 10876 10877 10878 3
10875 10876 10877 10879 3
10880 10876 10877 10878 3
10880 10876 10877 10879 3
10882 10883 10884 10885 3 33.20422 0.00000 -33.20422 0.00000 0.00000 0.00000 ; methylguanidinium ion
10882 10883 10884 10890 3 20.50160 0.00000 -20.50160 0.00000 0.00000 0.00000 ; imides
10883 10884 10885 10886 3 25.47638 0.00000 -25.47638 0.00000 0.00000 0.00000 ; amides O-C(O)-N-C
10883 10884 10885 10888 3
10883 10884 10885 10889 3
10884 10885 10886 10887 3 16.73600 4.18400 -20.92000 0.00000 0.00000 0.00000 ; carbamates
10888 10885 10886 10887 3
10889 10885 10886 10887 3
10890 10884 10885 10886 3 20.50160 0.00000 -20.50160 0.00000 0.00000 0.00000 ; amides wlj 6/20/97
10890 10884 10885 10888 3
10890 10884 10885 10889 3
10892 10893 10894 10895 3 33.20422 0.00000 -33.20422 0.00000 0.00000 0.00000 ; methylguanidinium ion
10892 10893 10894 10898 3 20.50160 0.00000 -20.50160 0.00000 0.00000 0.00000 ; imides
10893 10894 10895 10896 3
10893 10894 10895 10897 3
10898 10894 10895 10896 3
10898 10894 10895 10897 3
10900 10901 10902 10903 3 33.20422 0.00000 -33.20422 0.00000 0.00000 0.00000 ; methylguanidinium ion
10900 10901 10902 10906 3 20.50160 0.00000 -20.50160 0.00000 0.00000 0.00000 ; imides
10901 10902 10903 10904 3
10901 10902 10903 10905 3
10906 10902 10903 10904 3
10906 10902 10903 10905 3
10908 10909 10910 10911 3 33.20422 0.00000 -33.20422 0.00000 0.00000 0.00000 ; methylguanidinium ion
10908 10909 10910 10914 3 20.50160 0.00000 -20.50160 0.00000 0.00000 0.00000 ; imides
10909 10910 10911 10912 3
10909 10910 10911 10913 3
10914 10910 10911 10912 3
10914 10910 10911 10913 3
10916 10917 10918 10919 3 33.20422 0.00000 -33.20422 0.00000 0.00000 0.00000 ; methylguanidinium ion
10916 10917 10918 10922 3 20.50160 0.00000 -20.50160 0.00000 0.00000 0.00000 ; imides
10917 10918 10919 10920 3
10917 10918 10919 10921 3
10922 10918 10919 10920 3
10922 10918 10919 10921 3
10924 10925 10926 10927 3 33.20422 0.00000 -33.20422 0.00000 0.00000 0.00000 ; methylguanidinium ion
10924 10925 10926 10930 3 20.50160 0.00000 -20.50160 0.00000 0.00000 0.00000 ; imides
10925 10926 10927 10928 3
10925 10926 10927 10929 3
10930 10926 10927 10928 3
10930 10926 10927 10929 3
10932 10933 10934 10935 3 33.20422 0.00000 -33.20422 0.00000 0.00000 0.00000 ; methylguanidinium ion
10932 10933 10934 10938 3 20.50160 0.00000 -20.50160 0.00000 0.00000 0.00000 ; imides
10933 10934 10935 10936 3
10933 10934 10935 10937 3
10938 10934 10935 10936 3
10938 10934 10935 10937 3
10940 10941 10942 10943 3 33.20422 0.00000 -33.20422 0.00000 0.00000 0.00000 ; methylguanidinium ion
10940 10941 10942 10947 3 20.50160 0.00000 -20.50160 0.00000 0.00000 0.00000 ; imides
10941 10942 10943 10944 3 25.47638 0.00000 -25.47638 0.00000 0.00000 0.00000 ; amides O-C(O)-N-C
10941 10942 10943 10945 3
10941 10942 10943 10946 3
10947 10942 10943 10944 3 20.50160 0.00000 -20.50160 0.00000 0.00000 0.00000 ; amides wlj 6/20/97
10947 10942 10943 10945 3
10947 10942 10943 10946 3
10949 10950 10951 10952 3 33.20422 0.00000 -33.20422 0.00000 0.00000 0.00000 ; methylguanidinium ion
10949 10950 10951 10957 3 20.50160 0.00000 -20.50160 0.00000 0.00000 0.00000 ; imides
10950 10951 10952 10953 3 25.47638 0.00000 -25.47638 0.00000 0.00000 0.00000 ; amides O-C(O)-N-C
10950 10951 10952 10955 3
10950 10951 10952 10956 3
10951 10952 10953 10954 3 16.73600 4.18400 -20.92000 0.00000 0.00000 0.00000 ; carbamates
10955 10952 10953 10954 3
10956 10952 10953 10954 3
10957 10951 10952 10953 3 20.50160 0.00000 -20.50160 0.00000 0.00000 0.00000 ; amides wlj 6/20/97
10957 10951 10952 10955 3
10957 10951 10952 10956 3
10959 10960 10961 10962 3 33.20422 0.00000 -33.20422 0.00000 0.00000 0.00000 ; methylguanidinium ion
10959 10960 10961 10965 3 20.50160 0.00000 -20.50160 0.00000 0.00000 0.00000 ; imides
10960 10961 10962 10963 3
10960 10961 10962 10964 3
10965 10961 10962 10963 3
10965 10961 10962 10964 3
10967 10968 10969 10970 3 33.20422 0.00000 -33.20422 0.00000 0.00000 0.00000 ; methylguanidinium ion
10967 10968 10969 10973 3 20.50160 0.00000 -20.50160 0.00000 0.00000 0.00000 ; imides
10968 10969 10970 10971 3
10968 10969 10970 10972 3
10973 10969 10970 10971 3
10973 10969 10970 10972 3
10975 10976 10977 10978 3 33.20422 0.00000 -33.20422 0.00000 0.00000 0.00000 ; methylguanidinium ion
10975 10976 10977 10981 3 20.50160 0.00000 -20.50160 0.00000 0.00000 0.00000 ; imides
10976 10977 10978 10979 3
10976 10977 10978 10980 3
10981 10977 10978 10979 3
10981 10977 10978 10980 3
10983 10984 10985 10986 3 33.20422 0.00000 -33.20422 0.00000 0.00000 0.00000 ; methylguanidinium ion
10983 10984 10985 10989 3 20.50160 0.00000 -20.50160 0.00000 0.00000 0.00000 ; imides
10984 10985 10986 10987 3
10984 10985 10986 10988 3
10989 10985 10986 10987 3
10989 10985 10986 10988 3
10991 10992 10993 10994 3 33.20422 0.00000 -33.20422 0.00000 0.00000 0.00000 ; methylguanidinium ion
10991 10992 10993 10997 3 20.50160 0.00000 -20.50160 0.00000 0.00000 0.00000 ; imides
10992 10993 10994 10995 3
10992 10993 10994 10996 3
10997 10993 10994 10995 3
10997 10993 10994 10996 3
10999 11000 11001 11002 3 33.20422 0.00000 -33.20422 0.00000 0.00000 0.00000 ; methylguanidinium ion
10999 11000 11001 11005 3 20.50160 0.00000 -20.50160 0.00000 0.00000 0.00000 ; imides
11000 11001 11002 11003 3
11000 11001 11002 11004 3
11005 11001 11002 11003 3
11005 11001 11002 11004 3
11007 11008 11009 11010 3 33.20422 0.00000 -33.20422 0.00000 0.00000 0.00000 ; methylguanidinium ion
11007 11008 11009 11014 3 20.50160 0.00000 -20.50160 0.00000 0.00000 0.00000 ; imides
11008 11009 11010 11011 3 25.47638 0.00000 -25.47638 0.00000 0.00000 0.00000 ; amides O-C(O)-N-C
11008 11009 11010 11012 3
11008 11009 11010 11013 3
11014 11009 11010 11011 3 20.50160 0.00000 -20.50160 0.00000 0.00000 0.00000 ; amides wlj 6/20/97
11014 11009 11010 11012 3
11014 11009 11010 11013 3
11016 11017 11018 11019 3 33.20422 0.00000 -33.20422 0.00000 0.00000 0.00000 ; methylguanidinium ion
11016 11017 11018 11022 3 20.50160 0.00000 -20.50160 0.00000 0.00000 0.00000 ; imides
11017 11018 11019 11020 3
11017 11018 11019 11021 3
11022 11018 11019 11020 3
11022 11018 11019 11021 3
11024 11025 11026 11027 3 33.20422 0.00000 -33.20422 0.00000 0.00000 0.00000 ; methylguanidinium ion
11024 11025 11026 11031 3 20.50160 0.00000 -20.50160 0.00000 0.00000 0.00000 ; imides
11025 11026 11027 11028 3 25.47638 0.00000 -25.47638 0.00000 0.00000 0.00000 ; amides O-C(O)-N-C
11025 11026 11027 11029 3
11025 11026 11027 11030 3
11031 11026 11027 11028 3 20.50160 0.00000 -20.50160 0.00000 0.00000 0.00000 ; amides wlj 6/20/97
11031 11026 11027 11029 3
11031 11026 11027 11030 3
11033 11034 11035 11036 3 33.20422 0.00000 -33.20422 0.00000 0.00000 0.00000 ; methylguanidinium ion
11033 11034 11035 11039 3 20.50160 0.00000 -20.50160 0.00000 0.00000 0.00000 ; imides
11034 11035 11036 11037 3
11034 11035 11036 11038 3
11039 11035 11036 11037 3
11039 11035 11036 11038 3
11041 11042 11043 11044 3 33.20422 0.00000 -33.20422 0.00000 0.00000 0.00000 ; methylguanidinium ion
11041 11042 11043 11047 3 20.50160 0.00000 -20.50160 0.00000 0.00000 0.00000 ; imides
11042 11043 11044 11045 3
11042 11043 11044 11046 3
11047 11043 11044 11045 3
11047 11043 11044 11046 3
11049 11050 11051 11052 3 33.20422 0.00000 -33.20422 0.00000 0.00000 0.00000 ; methylguanidinium ion
11049 11050 11051 11055 3 20.50160 0.00000 -20.50160 0.00000 0.00000 0.00000 ; imides
11050 11051 11052 11053 3
11050 11051 11052 11054 3
11055 11051 11052 11053 3
11055 11051 11052 11054 3
11057 11058 11059 11060 3 33.20422 0.00000 -33.20422 0.00000 0.00000 0.00000 ; methylguanidinium ion
11057 11058 11059 11063 3 20.50160 0.00000 -20.50160 0.00000 0.00000 0.00000 ; imides
11058 11059 11060 11061 3
11058 11059 11060 11062 3
11063 11059 11060 11061 3
11063 11059 11060 11062 3
11065 11066 11067 11068 3 33.20422 0.00000 -33.20422 0.00000 0.00000 0.00000 ; methylguanidinium ion
11065 11066 11067 11071 3 20.50160 0.00000 -20.50160 0.00000 0.00000 0.00000 ; imides
11066 11067 11068 11069 3
11066 11067 11068 11070 3
11071 11067 11068 11069 3
11071 11067 11068 11070 3
11073 11074 11075 11076 3 33.20422 0.00000 -33.20422 0.00000 0.00000 0.00000 ; methylguanidinium ion
11073 11074 11075 11079 3 20.50160 0.00000 -20.50160 0.00000 0.00000 0.00000 ; imides
11074 11075 11076 11077 3
11074 11075 11076 11078 3
11079 11075 11076 11077 3
11079 11075 11076 11078 3
11081 11082 11083 11084 3 33.20422 0.00000 -33.20422 0.00000 0.00000 0.00000 ; methylguanidinium ion
11081 11082 11083 11087 3 20.50160 0.00000 -20.50160 0.00000 0.00000 0.00000 ; imides
11082 11083 11084 11085 3
11082 11083 11084 11086 3
11087 11083 11084 11085 3
11087 11083 11084 11086 3
11089 11090 11091 11092 3 33.20422 0.00000 -33.20422 0.00000 0.00000 0.00000 ; methylguanidinium ion
11089 11090 11091 11095 3 20.50160 0.00000 -20.50160 0.00000 0.00000 0.00000 ; imides
11090 11091 11092 11093 3
11090 11091 11092 11094 3
11095 11091 11092 11093 3
11095 11091 11092 11094 3
11097 11098 11099 11100 3 33.20422 0.00000 -33.20422 0.00000 0.00000 0.00000 ; methylguanidinium ion
11097 11098 11099 11103 3 20.50160 0.00000 -20.50160 0.00000 0.00000 0.00000 ; imides
11098 11099 11100 11101 3
11098 11099 11100 11102 3
11103 11099 11100 11101 3
11103 11099 11100 11102 3
11105 11106 11107 11108 3 33.20422 0.00000 -33.20422 0.00000 0.00000 0.00000 ; methylguanidinium ion
11105 11106 11107 11111 3 20.50160 0.00000 -20.50160 0.00000 0.00000 0.00000 ; imides
11106 11107 11108 11109 3
11106 11107 11108 11110 3
11111 11107 11108 11109 3
11111 11107 11108 11110 3
11113 11114 11115 11116 3 33.20422 0.00000 -33.20422 0.00000 0.00000 0.00000 ; methylguanidinium ion
11113 11114 11115 11119 3 20.50160 0.00000 -20.50160 0.00000 0.00000 0.00000 ; imides
11114 11115 11116 11117 3
11114 11115 11116 11118 3
11119 11115 11116 11117 3
11119 11115 11116 11118 3
11121 11122 11123 11124 3 33.20422 0.00000 -33.20422 0.00000 0.00000 0.00000 ; methylguanidinium ion
11121 11122 11123 11127 3 20.50160 0.00000 -20.50160 0.00000 0.00000 0.00000 ; imides
11122 11123 11124 11125 3
11122 11123 11124 11126 3
11127 11123 11124 11125 3
11127 11123 11124 11126 3
11129 11130 11131 11132 3 33.20422 0.00000 -33.20422 0.00000 0.00000 0.00000 ; methylguanidinium ion
11129 11130 11131 11136 3 20.50160 0.00000 -20.50160 0.00000 0.00000 0.00000 ; imides
11130 11131 11132 11133 3 25.47638 0.00000 -25.47638 0.00000 0.00000 0.00000 ; amides O-C(O)-N-C
11130 11131 11132 11134 3
11130 11131 11132 11135 3
11136 11131 11132 11133 3 20.50160 0.00000 -20.50160 0.00000 0.00000 0.00000 ; amides wlj 6/20/97
11136 11131 11132 11134 3
11136 11131 11132 11135 3
11138 11139 11140 11141 3 33.20422 0.00000 -33.20422 0.00000 0.00000 0.00000 ; methylguanidinium ion
11138 11139 11140 11144 3 20.50160 0.00000 -20.50160 0.00000 0.00000 0.00000 ; imides
11139 11140 11141 11142 3
11139 11140 11141 11143 3
11144 11140 11141 11142 3
11144 11140 11141 11143 3
11146 11147 11148 11149 3 33.20422 0.00000 -33.20422 0.00000 0.00000 0.00000 ; methylguanidinium ion
11146 11147 11148 11153 3 20.50160 0.00000 -20.50160 0.00000 0.00000 0.00000 ; imides
11147 11148 11149 11150 3 25.47638 0.00000 -25.47638 0.00000 0.00000 0.00000 ; amides O-C(O)-N-C
11147 11148 11149 11151 3
11147 11148 11149 11152 3
11153 11148 11149 11150 3 20.50160 0.00000 -20.50160 0.00000 0.00000 0.00000 ; amides wlj 6/20/97
11153 11148 11149 11151 3
11153 11148 11149 11152 3
11155 11156 11157 11158 3 33.20422 0.00000 -33.20422 0.00000 0.00000 0.00000 ; methylguanidinium ion
11155 11156 11157 11161 3 20.50160 0.00000 -20.50160 0.00000 0.00000 0.00000 ; imides
11156 11157 11158 11159 3
11156 11157 11158 11160 3
11161 11157 11158 11159 3
11161 11157 11158 11160 3
11163 11164 11165 11166 3 33.20422 0.00000 -33.20422 0.00000 0.00000 0.00000 ; methylguanidinium ion
11163 11164 11165 11169 3 20.50160 0.00000 -20.50160 0.00000 0.00000 0.00000 ; imides
11164 11165 11166 11167 3
11164 11165 11166 11168 3
11169 11165 11166 11167 3
11169 11165 11166 11168 3
11171 11172 11173 11174 3 33.20422 0.00000 -33.20422 0.00000 0.00000 0.00000 ; methylguanidinium ion
11171 11172 11173 11179 3 20.50160 0.00000 -20.50160 0.00000 0.00000 0.00000 ; imides
11172 11173 11174 11175 3 25.47638 0.00000 -25.47638 0.00000 0.00000 0.00000 ; amides O-C(O)-N-C
11172 11173 11174 11177 3
11172 11173 11174 11178 3
11173 11174 11175 11176 3 16.73600 4.18400 -20.92000 0.00000 0.00000 0.00000 ; carbamates
11177 11174 11175 11176 3
11178 11174 11175 11176 3
11179 11173 11174 11175 3 20.50160 0.00000 -20.50160 0.00000 0.00000 0.00000 ; amides wlj 6/20/97
11179 11173 11174 11177 3
11179 11173 11174 11178 3
11181 11182 11183 11184 3 33.20422 0.00000 -33.20422 0.00000 0.00000 0.00000 ; methylguanidinium ion
11181 11182 11183 11187 3 20.50160 0.00000 -20.50160 0.00000 0.00000 0.00000 ; imides
11182 11183 11184 11185 3
11182 11183 11184 11186 3
11187 11183 11184 11185 3
11187 11183 11184 11186 3
11189 11190 11191 11192 3 33.20422 0.00000 -33.20422 0.00000 0.00000 0.00000 ; methylguanidinium ion
11189 11190 11191 11195 3 20.50160 0.00000 -20.50160 0.00000 0.00000 0.00000 ; imides
11190 11191 11192 11193 3
11190 11191 11192 11194 3
11195 11191 11192 11193 3
11195 11191 11192 11194 3
11197 11198 11199 11200 3 33.20422 0.00000 -33.20422 0.00000 0.00000 0.00000 ; methylguanidinium ion
11197 11198 11199 11205 3 20.50160 0.00000 -20.50160 0.00000 0.00000 0.00000 ; imides
11198 11199 11200 11201 3 25.47638 0.00000 -25.47638 0.00000 0.00000 0.00000 ; amides O-C(O)-N-C
11198 11199 11200 11203 3
11198 11199 11200 11204 3
11199 11200 11201 11202 3 16.73600 4.18400 -20.92000 0.00000 0.00000 0.00000 ; carbamates
11203 11200 11201 11202 3
11204 11200 11201 11202 3
11205 11199 11200 11201 3 20.50160 0.00000 -20.50160 0.00000 0.00000 0.00000 ; amides wlj 6/20/97
11205 11199 11200 11203 3
11205 11199 11200 11204 3
11207 11208 11209 11210 3 33.20422 0.00000 -33.20422 0.00000 0.00000 0.00000 ; methylguanidinium ion
11207 11208 11209 11215 3 20.50160 0.00000 -20.50160 0.00000 0.00000 0.00000 ; imides
11208 11209 11210 11211 3 25.47638 0.00000 -25.47638 0.00000 0.00000 0.00000 ; amides O-C(O)-N-C
11208 11209 11210 11213 3
11208 11209 11210 11214 3
11209 11210 11211 11212 3 16.73600 4.18400 -20.92000 0.00000 0.00000 0.00000 ; carbamates
11213 11210 11211 11212 3
11214 11210 11211 11212 3
11215 11209 11210 11211 3 20.50160 0.00000 -20.50160 0.00000 0.00000 0.00000 ; amides wlj 6/20/97
11215 11209 11210 11213 3
11215 11209 11210 11214 3
11217 11218 11219 11220 3 33.20422 0.00000 -33.20422 0.00000 0.00000 0.00000 ; methylguanidinium ion
11217 11218 11219 11223 3 20.50160 0.00000 -20.50160 0.00000 0.00000 0.00000 ; imides
11218 11219 11220 11221 3
11218 11219 11220 11222 3
11223 11219 11220 11221 3
11223 11219 11220 11222 3
11225 11226 11227 11228 3 33.20422 0.00000 -33.20422 0.00000 0.00000 0.00000 ; methylguanidinium ion
11225 11226 11227 11232 3 20.50160 0.00000 -20.50160 0.00000 0.00000 0.00000 ; imides
11226 11227 11228 11229 3 25.47638 0.00000 -25.47638 0.00000 0.00000 0.00000 ; amides O-C(O)-N-C
11226 11227 11228 11230 3
11226 11227 11228 11231 3
11232 11227 11228 11229 3 20.50160 0.00000 -20.50160 0.00000 0.00000 0.00000 ; amides wlj 6/20/97
11232 11227 11228 11230 3
11232 11227 11228 11231 3
11234 11235 11236 11237 3 33.20422 0.00000 -33.20422 0.00000 0.00000 0.00000 ; methylguanidinium ion
11234 11235 11236 11242 3 20.50160 0.00000 -20.50160 0.00000 0.00000 0.00000 ; imides
11235 11236 11237 11238 3 25.47638 0.00000 -25.47638 0.00000 0.00000 0.00000 ; amides O-C(O)-N-C
11235 11236 11237 11240 3
11235 11236 11237 11241 3
11236 11237 11238 11239 3 16.73600 4.18400 -20.92000 0.00000 0.00000 0.00000 ; carbamates
11240 11237 11238 11239 3
11241 11237 11238 11239 3
11242 11236 11237 11238 3 20.50160 0.00000 -20.50160 0.00000 0.00000 0.00000 ; amides wlj 6/20/97
11242 11236 11237 11240 3
11242 11236 11237 11241 3
11244 11245 11246 11247 3 33.20422 0.00000 -33.20422 0.00000 0.00000 0.00000 ; methylguanidinium ion
11244 11245 11246 11250 3 20.50160 0.00000 -20.50160 0.00000 0.00000 0.00000 ; imides
11245 11246 11247 11248 3
11245 11246 11247 11249 3
11250 11246 11247 11248 3
11250 11246 11247 11249 3
11252 11253 11254 11255 3 33.20422 0.00000 -33.20422 0.00000 0.00000 0.00000 ; methylguanidinium ion
11252 11253 11254 11258 3 20.50160 0.00000 -20.50160 0.00000 0.00000 0.00000 ; imides
11253 11254 11255 11256 3
11253 11254 11255 11257 3
11258 11254 11255 11256 3
11258 11254 11255 11257 3
11260 11261 11262 11263 3 33.20422 0.00000 -33.20422 0.00000 0.00000 0.00000 ; methylguanidinium ion
11260 11261 11262 11266 3 20.50160 0.00000 -20.50160 0.00000 0.00000 0.00000 ; imides
11261 11262 11263 11264 3
11261 11262 11263 11265 3
11266 11262 11263 11264 3
11266 11262 11263 11265 3
11268 11269 11270 11271 3 33.20422 0.00000 -33.20422 0.00000 0.00000 0.00000 ; methylguanidinium ion
11268 11269 11270 11274 3 20.50160 0.00000 -20.50160 0.00000 0.00000 0.00000 ; imides
11269 11270 11271 11272 3
11269 11270 11271 11273 3
11274 11270 11271 11272 3
11274 11270 11271 11273 3
11276 11277 11278 11279 3 33.20422 0.00000 -33.20422 0.00000 0.00000 0.00000 ; methylguanidinium ion
11276 11277 11278 11283 3 20.50160 0.00000 -20.50160 0.00000 0.00000 0.00000 ; imides
11277 11278 11279 11280 3 25.47638 0.00000 -25.47638 0.00000 0.00000 0.00000 ; amides O-C(O)-N-C
11277 11278 11279 11281 3
11277 11278 11279 11282 3
11283 11278 11279 11280 3 20.50160 0.00000 -20.50160 0.00000 0.00000 0.00000 ; amides wlj 6/20/97
11283 11278 11279 11281 3
11283 11278 11279 11282 3
11285 11286 11287 11288 3 33.20422 0.00000 -33.20422 0.00000 0.00000 0.00000 ; methylguanidinium ion
11285 11286 11287 11291 3 20.50160 0.00000 -20.50160 0.00000 0.00000 0.00000 ; imides
11286 11287 11288 11289 3
11286 11287 11288 11290 3
11291 11287 11288 11289 3
11291 11287 11288 11290 3
11293 11294 11295 11296 3 33.20422 0.00000 -33.20422 0.00000 0.00000 0.00000 ; methylguanidinium ion
11293 11294 11295 11299 3 20.50160 0.00000 -20.50160 0.00000 0.00000 0.00000 ; imides
11294 11295 11296 11297 3
11294 11295 11296 11298 3
11299 11295 11296 11297 3
11299 11295 11296 11298 3
11301 11302 11303 11304 3 33.20422 0.00000 -33.20422 0.00000 0.00000 0.00000 ; methylguanidinium ion
11301 11302 11303 11307 3 20.50160 0.00000 -20.50160 0.00000 0.00000 0.00000 ; imides
11302 11303 11304 11305 3
11302 11303 11304 11306 3
11307 11303 11304 11305 3
11307 11303 11304 11306 3
11309 11310 11311 11312 3 33.20422 0.00000 -33.20422 0.00000 0.00000 0.00000 ; methylguanidinium ion
11309 11310 11311 11315 3 20.50160 0.00000 -20.50160 0.00000 0.00000 0.00000 ; imides
11310 11311 11312 11313 3
11310 11311 11312 11314 3
11315 11311 11312 11313 3
11315 11311 11312 11314 3
11317 11318 11319 11320 3 33.20422 0.00000 -33.20422 0.00000 0.00000 0.00000 ; methylguanidinium ion
11317 11318 11319 11323 3 20.50160 0.00000 -20.50160 0.00000 0.00000 0.00000 ; imides
11318 11319 11320 11321 3
11318 11319 11320 11322 3
11323 11319 11320 11321 3
11323 11319 11320 11322 3
11325 11326 11327 11328 3 33.20422 0.00000 -33.20422 0.00000 0.00000 0.00000 ; methylguanidinium ion
11325 11326 11327 11331 3 20.50160 0.00000 -20.50160 0.00000 0.00000 0.00000 ; imides
11326 11327 11328 11329 3
11326 11327 11328 11330 3
11331 11327 11328 11329 3
11331 11327 11328 11330 3
11333 11334 11335 11336 3 33.20422 0.00000 -33.20422 0.00000 0.00000 0.00000 ; methylguanidinium ion
11333 11334 11335 11339 3 20.50160 0.00000 -20.50160 0.00000 0.00000 0.00000 ; imides
11334 11335 11336 11337 3
11334 11335 11336 11338 3
11339 11335 11336 11337 3
11339 11335 11336 11338 3
11341 11342 11343 11344 3 33.20422 0.00000 -33.20422 0.00000 0.00000 0.00000 ; methylguanidinium ion
11341 11342 11343 11347 3 20.50160 0.00000 -20.50160 0.00000 0.00000 0.00000 ; imides
11342 11343 11344 11345 3
11342 11343 11344 11346 3
11347 11343 11344 11345 3
11347 11343 11344 11346 3
11349 11350 11351 11352 3 33.20422 0.00000 -33.20422 0.00000 0.00000 0.00000 ; methylguanidinium ion
11349 11350 11351 11355 3 20.50160 0.00000 -20.50160 0.00000 0.00000 0.00000 ; imides
11350 11351 11352 11353 3
11350 11351 11352 11354 3
11355 11351 11352 11353 3
11355 11351 11352 11354 3
11357 11358 11359 11360 3 33.20422 0.00000 -33.20422 0.00000 0.00000 0.00000 ; methylguanidinium ion
11357 11358 11359 11363 3 20.50160 0.00000 -20.50160 0.00000 0.00000 0.00000 ; imides
11358 11359 11360 11361 3
11358 11359 11360 11362 3
11363 11359 11360 11361 3
11363 11359 11360 11362 3
11365 11366 11367 11368 3 33.20422 0.00000 -33.20422 0.00000 0.00000 0.00000 ; methylguanidinium ion
11365 11366 11367 11371 3 20.50160 0.00000 -20.50160 0.00000 0.00000 0.00000 ; imides
11366 11367 11368 11369 3
11366 11367 11368 11370 3
11371 11367 11368 11369 3
11371 11367 11368 11370 3
11373 11374 11375 11376 3 33.20422 0.00000 -33.20422 0.00000 0.00000 0.00000 ; methylguanidinium ion
11373 11374 11375 11379 3 20.50160 0.00000 -20.50160 0.00000 0.00000 0.00000 ; imides
11374 11375 11376 11377 3
11374 11375 11376 11378 3
11379 11375 11376 11377 3
11379 11375 11376 11378 3
11381 11382 11383 11384 3 33.20422 0.00000 -33.20422 0.00000 0.00000 0.00000 ; methylguanidinium ion
11381 11382 11383 11387 3 20.50160 0.00000 -20.50160 0.00000 0.00000 0.00000 ; imides
11382 11383 11384 11385 3
11382 11383 11384 11386 3
11387 11383 11384 11385 3
11387 11383 11384 11386 3
11389 11390 11391 11392 3 33.20422 0.00000 -33.20422 0.00000 0.00000 0.00000 ; methylguanidinium ion
11389 11390 11391 11395 3 20.50160 0.00000 -20.50160 0.00000 0.00000 0.00000 ; imides
11390 11391 11392 11393 3
11390 11391 11392 11394 3
11395 11391 11392 11393 3
11395 11391 11392 11394 3
11397 11398 11399 11400 3 33.20422 0.00000 -33.20422 0.00000 0.00000 0.00000 ; methylguanidinium ion
11397 11398 11399 11404 3 20.50160 0.00000 -20.50160 0.00000 0.00000 0.00000 ; imides
11398 11399 11400 11401 3 25.47638 0.00000 -25.47638 0.00000 0.00000 0.00000 ; amides O-C(O)-N-C
11398 11399 11400 11402 3
11398 11399 11400 11403 3
11404 11399 11400 11401 3 20.50160 0.00000 -20.50160 0.00000 0.00000 0.00000 ; amides wlj 6/20/97
11404 11399 11400 11402 3
11404 11399 11400 11403 3
11406 11407 11408 11409 3 33.20422 0.00000 -33.20422 0.00000 0.00000 0.00000 ; methylguanidinium ion
11406 11407 11408 11412 3 20.50160 0.00000 -20.50160 0.00000 0.00000 0.00000 ; imides
11407 11408 11409 11410 3
11407 11408 11409 11411 3
11412 11408 11409 11410 3
11412 11408 11409 11411 3
11414 11415 11416 11417 3 33.20422 0.00000 -33.20422 0.00000 0.00000 0.00000 ; methylguanidinium ion
11414 11415 11416 11420 3 20.50160 0.00000 -20.50160 0.00000 0.00000 0.00000 ; imides
11415 11416 11417 11418 3
11415 11416 11417 11419 3
11420 11416 11417 11418 3
11420 11416 11417 11419 3
11422 11423 11424 11425 3 33.20422 0.00000 -33.20422 0.00000 0.00000 0.00000 ; methylguanidinium ion
11422 11423 11424 11428 3 20.50160 0.00000 -20.50160 0.00000 0.00000 0.00000 ; imides
11423 11424 11425 11426 3
11423 11424 11425 11427 3
11428 11424 11425 11426 3
11428 11424 11425 11427 3
11430 11431 11432 11433 3 33.20422 0.00000 -33.20422 0.00000 0.00000 0.00000 ; methylguanidinium ion
11430 11431 11432 11436 3 20.50160 0.00000 -20.50160 0.00000 0.00000 0.00000 ; imides
11431 11432 11433 11434 3
11431 11432 11433 11435 3
11436 11432 11433 11434 3
11436 11432 11433 11435 3
11438 11439 11440 11441 3 33.20422 0.00000 -33.20422 0.00000 0.00000 0.00000 ; methylguanidinium ion
11438 11439 11440 11444 3 20.50160 0.00000 -20.50160 0.00000 0.00000 0.00000 ; imides
11439 11440 11441 11442 3
11439 11440 11441 11443 3
11444 11440 11441 11442 3
11444 11440 11441 11443 3
11446 11447 11448 11449 3 33.20422 0.00000 -33.20422 0.00000 0.00000 0.00000 ; methylguanidinium ion
11446 11447 11448 11452 3 20.50160 0.00000 -20.50160 0.00000 0.00000 0.00000 ; imides
11447 11448 11449 11450 3
11447 11448 11449 11451 3
11452 11448 11449 11450 3
11452 11448 11449 11451 3
11454 11455 11456 11457 3 33.20422 0.00000 -33.20422 0.00000 0.00000 0.00000 ; methylguanidinium ion
11454 11455 11456 11460 3 20.50160 0.00000 -20.50160 0.00000 0.00000 0.00000 ; imides
11455 11456 11457 11458 3
11455 11456 11457 11459 3
11460 11456 11457 11458 3
11460 11456 11457 11459 3
11462 11463 11464 11465 3 33.20422 0.00000 -33.20422 0.00000 0.00000 0.00000 ; methylguanidinium ion
11462 11463 11464 11468 3 20.50160 0.00000 -20.50160 0.00000 0.00000 0.00000 ; imides
11463 11464 11465 11466 3
11463 11464 11465 11467 3
11468 11464 11465 11466 3
11468 11464 11465 11467 3
11470 11471 11472 11473 3 33.20422 0.00000 -33.20422 0.00000 0.00000 0.00000 ; methylguanidinium ion
11470 11471 11472 11478 3 20.50160 0.00000 -20.50160 0.00000 0.00000 0.00000 ; imides
11471 11472 11473 11474 3 25.47638 0.00000 -25.47638 0.00000 0.00000 0.00000 ; amides O-C(O)-N-C
11471 11472 11473 11476 3
11471 11472 11473 11477 3
11472 11473 11474 11475 3 16.73600 4.18400 -20.92000 0.00000 0.00000 0.00000 ; carbamates
11476 11473 11474 11475 3
11477 11473 11474 11475 3
11478 11472 11473 11474 3 20.50160 0.00000 -20.50160 0.00000 0.00000 0.00000 ; amides wlj 6/20/97
11478 11472 11473 11476 3
11478 11472 11473 11477 3
11480 11481 11482 11483 3 33.20422 0.00000 -33.20422 0.00000 0.00000 0.00000 ; methylguanidinium ion
11480 11481 11482 11486 3 20.50160 0.00000 -20.50160 0.00000 0.00000 0.00000 ; imides
11481 11482 11483 11484 3
11481 11482 11483 11485 3
11486 11482 11483 11484 3
11486 11482 11483 11485 3
11488 11489 11490 11491 3 33.20422 0.00000 -33.20422 0.00000 0.00000 0.00000 ; methylguanidinium ion
11488 11489 11490 11494 3 20.50160 0.00000 -20.50160 0.00000 0.00000 0.00000 ; imides
11489 11490 11491 11492 3
11489 11490 11491 11493 3
11494 11490 11491 11492 3
11494 11490 11491 11493 3
11496 11497 11498 11499 3 33.20422 0.00000 -33.20422 0.00000 0.00000 0.00000 ; methylguanidinium ion
11496 11497 11498 11502 3 20.50160 0.00000 -20.50160 0.00000 0.00000 0.00000 ; imides
11497 11498 11499 11500 3
11497 11498 11499 11501 3
11502 11498 11499 11500 3
11502 11498 11499 11501 3
11504 11505 11506 11507 3 33.20422 0.00000 -33.20422 0.00000 0.00000 0.00000 ; methylguanidinium ion
11504 11505 11506 11510 3 20.50160 0.00000 -20.50160 0.00000 0.00000 0.00000 ; imides
11505 11506 11507 11508 3
11505 11506 11507 11509 3
11510 11506 11507 11508 3
11510 11506 11507 11509 3
11512 11513 11514 11515 3 33.20422 0.00000 -33.20422 0.00000 0.00000 0.00000 ; methylguanidinium ion
11512 11513 11514 11518 3 20.50160 0.00000 -20.50160 0.00000 0.00000 0.00000 ; imides
11513 11514 11515 11516 3
11513 11514 11515 11517 3
11518 11514 11515 11516 3
11518 11514 11515 11517 3
11520 11521 11522 11523 3 33.20422 0.00000 -33.20422 0.00000 0.00000 0.00000 ; methylguanidinium ion
11520 11521 11522 11528 3 20.50160 0.00000 -20.50160 0.00000 0.00000 0.00000 ; imides
11521 11522 11523 11524 3 25.47638 0.00000 -25.47638 0.00000 0.00000 0.00000 ; amides O-C(O)-N-C
11521 11522 11523 11526 3
11521 11522 11523 11527 3
11522 11523 11524 11525 3 16.73600 4.18400 -20.92000 0.00000 0.00000 0.00000 ; carbamates
11526 11523 11524 11525 3
11527 11523 11524 11525 3
11528 11522 11523 11524 3 20.50160 0.00000 -20.50160 0.00000 0.00000 0.00000 ; amides wlj 6/20/97
11528 11522 11523 11526 3
11528 11522 11523 11527 3
11530 11531 11532 11533 3 33.20422 0.00000 -33.20422 0.00000 0.00000 0.00000 ; methylguanidinium ion
11530 11531 11532 11538 3 20.50160 0.00000 -20.50160 0.00000 0.00000 0.00000 ; imides
11531 11532 11533 11534 3 25.47638 0.00000 -25.47638 0.00000 0.00000 0.00000 ; amides O-C(O)-N-C
11531 11532 11533 11536 3
11531 11532 11533 11537 3
11532 11533 11534 11535 3 16.73600 4.18400 -20.92000 0.00000 0.00000 0.00000 ; carbamates
11536 11533 11534 11535 3
11537 11533 11534 11535 3
11538 11532 11533 11534 3 20.50160 0.00000 -20.50160 0.00000 0.00000 0.00000 ; amides wlj 6/20/97
11538 11532 11533 11536 3
11538 11532 11533 11537 3
11540 11541 11542 11543 3 33.20422 0.00000 -33.20422 0.00000 0.00000 0.00000 ; methylguanidinium ion
11540 11541 11542 11546 3 20.50160 0.00000 -20.50160 0.00000 0.00000 0.00000 ; imides
11541 11542 11543 11544 3
11541 11542 11543 11545 3
11546 11542 11543 11544 3
11546 11542 11543 11545 3
11548 11549 11550 11551 3 33.20422 0.00000 -33.20422 0.00000 0.00000 0.00000 ; methylguanidinium ion
11548 11549 11550 11554 3 20.50160 0.00000 -20.50160 0.00000 0.00000 0.00000 ; imides
11549 11550 11551 11552 3
11549 11550 11551 11553 3
11554 11550 11551 11552 3
11554 11550 11551 11553 3
11556 11557 11558 11559 3 33.20422 0.00000 -33.20422 0.00000 0.00000 0.00000 ; methylguanidinium ion
11556 11557 11558 11563 3 20.50160 0.00000 -20.50160 0.00000 0.00000 0.00000 ; imides
11557 11558 11559 11560 3 25.47638 0.00000 -25.47638 0.00000 0.00000 0.00000 ; amides O-C(O)-N-C
11557 11558 11559 11561 3
11557 11558 11559 11562 3
11563 11558 11559 11560 3 20.50160 0.00000 -20.50160 0.00000 0.00000 0.00000 ; amides wlj 6/20/97
11563 11558 11559 11561 3
11563 11558 11559 11562 3
11565 11566 11567 11568 3 33.20422 0.00000 -33.20422 0.00000 0.00000 0.00000 ; methylguanidinium ion
11565 11566 11567 11571 3 20.50160 0.00000 -20.50160 0.00000 0.00000 0.00000 ; imides
11566 11567 11568 11569 3
11566 11567 11568 11570 3
11571 11567 11568 11569 3
11571 11567 11568 11570 3
11573 11574 11575 11576 3 33.20422 0.00000 -33.20422 0.00000 0.00000 0.00000 ; methylguanidinium ion
11573 11574 11575 11579 3 20.50160 0.00000 -20.50160 0.00000 0.00000 0.00000 ; imides
11574 11575 11576 11577 3
11574 11575 11576 11578 3
11579 11575 11576 11577 3
11579 11575 11576 11578 3
11581 11582 11583 11584 3 33.20422 0.00000 -33.20422 0.00000 0.00000 0.00000 ; methylguanidinium ion
11581 11582 11583 11587 3 20.50160 0.00000 -20.50160 0.00000 0.00000 0.00000 ; imides
11582 11583 11584 11585 3
11582 11583 11584 11586 3
11587 11583 11584 11585 3
11587 11583 11584 11586 3
11589 11590 11591 11592 3 33.20422 0.00000 -33.20422 0.00000 0.00000 0.00000 ; methylguanidinium ion
11589 11590 11591 11595 3 20.50160 0.00000 -20.50160 0.00000 0.00000 0.00000 ; imides
11590 11591 11592 11593 3
11590 11591 11592 11594 3
11595 11591 11592 11593 3
11595 11591 11592 11594 3
11597 11598 11599 11600 3 33.20422 0.00000 -33.20422 0.00000 0.00000 0.00000 ; methylguanidinium ion
11597 11598 11599 11605 3 20.50160 0.00000 -20.50160 0.00000 0.00000 0.00000 ; imides
11598 11599 11600 11601 3 25.47638 0.00000 -25.47638 0.00000 0.00000 0.00000 ; amides O-C(O)-N-C
11598 11599 11600 11603 3
11598 11599 11600 11604 3
11599 11600 11601 11602 3 16.73600 4.18400 -20.92000 0.00000 0.00000 0.00000 ; carbamates
11603 11600 11601 11602 3
11604 11600 11601 11602 3
11605 11599 11600 11601 3 20.50160 0.00000 -20.50160 0.00000 0.00000 0.00000 ; amides wlj 6/20/97
11605 11599 11600 11603 3
11605 11599 11600 11604 3
11607 11608 11609 11610 3 33.20422 0.00000 -33.20422 0.00000 0.00000 0.00000 ; methylguanidinium ion
11607 11608 11609 11613 3 20.50160 0.00000 -20.50160 0.00000 0.00000 0.00000 ; imides
11608 11609 11610 11611 3
11608 11609 11610 11612 3
11613 11609 11610 11611 3
11613 11609 11610 11612 3
11615 11616 11617 11618 3 33.20422 0.00000 -33.20422 0.00000 0.00000 0.00000 ; methylguanidinium ion
11615 11616 11617 11621 3 20.50160 0.00000 -20.50160 0.00000 0.00000 0.00000 ; imides
11616 11617 11618 11619 3
11616 11617 11618 11620 3
11621 11617 11618 11619 3
11621 11617 11618 11620 3
11623 11624 11625 11626 3 33.20422 0.00000 -33.20422 0.00000 0.00000 0.00000 ; methylguanidinium ion
11623 11624 11625 11629 3 20.50160 0.00000 -20.50160 0.00000 0.00000 0.00000 ; imides
11624 11625 11626 11627 3
11624 11625 11626 11628 3
11629 11625 11626 11627 3
11629 11625 11626 11628 3
11631 11632 11633 11634 3 33.20422 0.00000 -33.20422 0.00000 0.00000 0.00000 ; methylguanidinium ion
11631 11632 11633 11637 3 20.50160 0.00000 -20.50160 0.00000 0.00000 0.00000 ; imides
11632 11633 11634 11635 3
11632 11633 11634 11636 3
11637 11633 11634 11635 3
11637 11633 11634 11636 3
11639 11640 11641 11642 3 33.20422 0.00000 -33.20422 0.00000 0.00000 0.00000 ; methylguanidinium ion
11639 11640 11641 11645 3 20.50160 0.00000 -20.50160 0.00000 0.00000 0.00000 ; imides
11640 11641 11642 11643 3
11640 11641 11642 11644 3
11645 11641 11642 11643 3
11645 11641 11642 11644 3
11647 11648 11649 11650 3 33.20422 0.00000 -33.20422 0.00000 0.00000 0.00000 ; methylguanidinium ion
11647 11648 11649 11653 3 20.50160 0.00000 -20.50160 0.00000 0.00000 0.00000 ; imides
11648 11649 11650 11651 3
11648 11649 11650 11652 3
11653 11649 11650 11651 3
11653 11649 11650 11652 3
11655 11656 11657 11658 3 33.20422 0.00000 -33.20422 0.00000 0.00000 0.00000 ; methylguanidinium ion
11655 11656 11657 11661 3 20.50160 0.00000 -20.50160 0.00000 0.00000 0.00000 ; imides
11656 11657 11658 11659 3
11656 11657 11658 11660 3
11661 11657 11658 11659 3
11661 11657 11658 11660 3
11663 11664 11665 11666 3 33.20422 0.00000 -33.20422 0.00000 0.00000 0.00000 ; methylguanidinium ion
11663 11664 11665 11671 3 20.50160 0.00000 -20.50160 0.00000 0.00000 0.00000 ; imides
11664 11665 11666 11667 3 25.47638 0.00000 -25.47638 0.00000 0.00000 0.00000 ; amides O-C(O)-N-C
11664 11665 11666 11669 3
11664 11665 11666 11670 3
11665 11666 11667 11668 3 16.73600 4.18400 -20.92000 0.00000 0.00000 0.00000 ; carbamates
11669 11666 11667 11668 3
11670 11666 11667 11668 3
11671 11665 11666 11667 3 20.50160 0.00000 -20.50160 0.00000 0.00000 0.00000 ; amides wlj 6/20/97
11671 11665 11666 11669 3
11671 11665 11666 11670 3
11673 11674 11675 11676 3 33.20422 0.00000 -33.20422 0.00000 0.00000 0.00000 ; methylguanidinium ion
11673 11674 11675 11681 3 20.50160 0.00000 -20.50160 0.00000 0.00000 0.00000 ; imides
11674 11675 11676 11677 3 25.47638 0.00000 -25.47638 0.00000 0.00000 0.00000 ; amides O-C(O)-N-C
11674 11675 11676 11679 3
11674 11675 11676 11680 3
11675 11676 11677 11678 3 16.73600 4.18400 -20.92000 0.00000 0.00000 0.00000 ; carbamates
11679 11676 11677 11678 3
11680 11676 11677 11678 3
11681 11675 11676 11677 3 20.50160 0.00000 -20.50160 0.00000 0.00000 0.00000 ; amides wlj 6/20/97
11681 11675 11676 11679 3
11681 11675 11676 11680 3
11683 11684 11685 11686 3 33.20422 0.00000 -33.20422 0.00000 0.00000 0.00000 ; methylguanidinium ion
11683 11684 11685 11689 3 20.50160 0.00000 -20.50160 0.00000 0.00000 0.00000 ; imides
11684 11685 11686 11687 3
11684 11685 11686 11688 3
11689 11685 11686 11687 3
11689 11685 11686 11688 3
11691 11692 11693 11694 3 33.20422 0.00000 -33.20422 0.00000 0.00000 0.00000 ; methylguanidinium ion
11691 11692 11693 11697 3 20.50160 0.00000 -20.50160 0.00000 0.00000 0.00000 ; imides
11692 11693 11694 11695 3
11692 11693 11694 11696 3
11697 11693 11694 11695 3
11697 11693 11694 11696 3
11699 11700 11701 11702 3 33.20422 0.00000 -33.20422 0.00000 0.00000 0.00000 ; methylguanidinium ion
11699 11700 11701 11705 3 20.50160 0.00000 -20.50160 0.00000 0.00000 0.00000 ; imides
11700 11701 11702 11703 3
11700 11701 11702 11704 3
11705 11701 11702 11703 3
11705 11701 11702 11704 3
11707 11708 11709 11710 3 33.20422 0.00000 -33.20422 0.00000 0.00000 0.00000 ; methylguanidinium ion
11707 11708 11709 11714 3 20.50160 0.00000 -20.50160 0.00000 0.00000 0.00000 ; imides
11708 11709 11710 11711 3 25.47638 0.00000 -25.47638 0.00000 0.00000 0.00000 ; amides O-C(O)-N-C
11708 11709 11710 11712 3
11708 11709 11710 11713 3
11714 11709 11710 11711 3 20.50160 0.00000 -20.50160 0.00000 0.00000 0.00000 ; amides wlj 6/20/97
11714 11709 11710 11712 3
11714 11709 11710 11713 3
11716 11717 11718 11719 3 33.20422 0.00000 -33.20422 0.00000 0.00000 0.00000 ; methylguanidinium ion
11716 11717 11718 11722 3 20.50160 0.00000 -20.50160 0.00000 0.00000 0.00000 ; imides
11717 11718 11719 11720 3
11717 11718 11719 11721 3
11722 11718 11719 11720 3
11722 11718 11719 11721 3
11724 11725 11726 11727 3 33.20422 0.00000 -33.20422 0.00000 0.00000 0.00000 ; methylguanidinium ion
11724 11725 11726 11730 3 20.50160 0.00000 -20.50160 0.00000 0.00000 0.00000 ; imides
11725 11726 11727 11728 3
11725 11726 11727 11729 3
11730 11726 11727 11728 3
11730 11726 11727 11729 3
11732 11733 11734 11735 3 33.20422 0.00000 -33.20422 0.00000 0.00000 0.00000 ; methylguanidinium ion
11732 11733 11734 11738 3 20.50160 0.00000 -20.50160 0.00000 0.00000 0.00000 ; imides
11733 11734 11735 11736 3
11733 11734 11735 11737 3
11738 11734 11735 11736 3
11738 11734 11735 11737 3
11740 11741 11742 11743 3 33.20422 0.00000 -33.20422 0.00000 0.00000 0.00000 ; methylguanidinium ion
11740 11741 11742 11746 3 20.50160 0.00000 -20.50160 0.00000 0.00000 0.00000 ; imides
11741 11742 11743 11744 3
11741 11742 11743 11745 3
11746 11742 11743 11744 3
11746 11742 11743 11745 3
11748 11749 11750 11751 3 33.20422 0.00000 -33.20422 0.00000 0.00000 0.00000 ; methylguanidinium ion
11748 11749 11750 11754 3 20.50160 0.00000 -20.50160 0.00000 0.00000 0.00000 ; imides
11749 11750 11751 11752 3
11749 11750 11751 11753 3
11754 11750 11751 11752 3
11754 11750 11751 11753 3
11756 11757 11758 11759 3 33.20422 0.00000 -33.20422 0.00000 0.00000 0.00000 ; methylguanidinium ion
11756 11757 11758 11762 3 20.50160 0.00000 -20.50160 0.00000 0.00000 0.00000 ; imides
11757 11758 11759 11760 3
11757 11758 11759 11761 3
11762 11758 11759 11760 3
11762 11758 11759 11761 3
11764 11765 11766 11767 3 33.20422 0.00000 -33.20422 0.00000 0.00000 0.00000 ; methylguanidinium ion
11764 11765 11766 11770 3 20.50160 0.00000 -20.50160 0.00000 0.00000 0.00000 ; imides
11765 11766 11767 11768 3
11765 11766 11767 11769 3
11770 11766 11767 11768 3
11770 11766 11767 11769 3
11772 11773 11774 11775 3 33.20422 0.00000 -33.20422 0.00000 0.00000 0.00000 ; methylguanidinium ion
11772 11773 11774 11778 3 20.50160 0.00000 -20.50160 0.00000 0.00000 0.00000 ; imides
11773 11774 11775 11776 3
11773 11774 11775 11777 3
11778 11774 11775 11776 3
11778 11774 11775 11777 3
11780 11781 11782 11783 3 33.20422 0.00000 -33.20422 0.00000 0.00000 0.00000 ; methylguanidinium ion
11780 11781 11782 11786 3 20.50160 0.00000 -20.50160 0.00000 0.00000 0.00000 ; imides
11781 11782 11783 11784 3
11781 11782 11783 11785 3
11786 11782 11783 11784 3
11786 11782 11783 11785 3
11788 11789 11790 11791 3 33.20422 0.00000 -33.20422 0.00000 0.00000 0.00000 ; methylguanidinium ion
11788 11789 11790 11795 3 20.50160 0.00000 -20.50160 0.00000 0.00000 0.00000 ; imides
11789 11790 11791 11792 3 25.47638 0.00000 -25.47638 0.00000 0.00000 0.00000 ; amides O-C(O)-N-C
11789 11790 11791 11793 3
11789 11790 11791 11794 3
11795 11790 11791 11792 3 20.50160 0.00000 -20.50160 0.00000 0.00000 0.00000 ; amides wlj 6/20/97
11795 11790 11791 11793 3
11795 11790 11791 11794 3
11797 11798 11799 11800 3 33.20422 0.00000 -33.20422 0.00000 0.00000 0.00000 ; methylguanidinium ion
11797 11798 11799 11803 3 20.50160 0.00000 -20.50160 0.00000 0.00000 0.00000 ; imides
11798 11799 11800 11801 3
11798 11799 11800 11802 3
11803 11799 11800 11801 3
11803 11799 11800 11802 3
11805 11806 11807 11808 3 33.20422 0.00000 -33.20422 0.00000 0.00000 0.00000 ; methylguanidinium ion
11805 11806 11807 11811 3 20.50160 0.00000 -20.50160 0.00000 0.00000 0.00000 ; imides
11806 11807 11808 11809 3
11806 11807 11808 11810 3
11811 11807 11808 11809 3
11811 11807 11808 11810 3
11813 11814 11815 11816 3 33.20422 0.00000 -33.20422 0.00000 0.00000 0.00000 ; methylguanidinium ion
11813 11814 11815 11819 3 20.50160 0.00000 -20.50160 0.00000 0.00000 0.00000 ; imides
11814 11815 11816 11817 3
11814 11815 11816 11818 3
11819 11815 11816 11817 3
11819 11815 11816 11818 3
11821 11822 11823 11824 3 33.20422 0.00000 -33.20422 0.00000 0.00000 0.00000 ; methylguanidinium ion
11821 11822 11823 11827 3 20.50160 0.00000 -20.50160 0.00000 0.00000 0.00000 ; imides
11822 11823 11824 11825 3
11822 11823 11824 11826 3
11827 11823 11824 11825 3
11827 11823 11824 11826 3
11829 11830 11831 11832 3 33.20422 0.00000 -33.20422 0.00000 0.00000 0.00000 ; methylguanidinium ion
11829 11830 11831 11836 3 20.50160 0.00000 -20.50160 0.00000 0.00000 0.00000 ; imides
11830 11831 11832 11833 3 25.47638 0.00000 -25.47638 0.00000 0.00000 0.00000 ; amides O-C(O)-N-C
11830 11831 11832 11834 3
11830 11831 11832 11835 3
11836 11831 11832 11833 3 20.50160 0.00000 -20.50160 0.00000 0.00000 0.00000 ; amides wlj 6/20/97
11836 11831 11832 11834 3
11836 11831 11832 11835 3
11838 11839 11840 11841 3 33.20422 0.00000 -33.20422 0.00000 0.00000 0.00000 ; methylguanidinium ion
11838 11839 11840 11844 3 20.50160 0.00000 -20.50160 0.00000 0.00000 0.00000 ; imides
11839 11840 11841 11842 3
11839 11840 11841 11843 3
11844 11840 11841 11842 3
11844 11840 11841 11843 3
11846 11847 11848 11849 3 33.20422 0.00000 -33.20422 0.00000 0.00000 0.00000 ; methylguanidinium ion
11846 11847 11848 11852 3 20.50160 0.00000 -20.50160 0.00000 0.00000 0.00000 ; imides
11847 11848 11849 11850 3
11847 11848 11849 11851 3
11852 11848 11849 11850 3
11852 11848 11849 11851 3
11854 11855 11856 11857 3 33.20422 0.00000 -33.20422 0.00000 0.00000 0.00000 ; methylguanidinium ion
11854 11855 11856 11861 3 20.50160 0.00000 -20.50160 0.00000 0.00000 0.00000 ; imides
11855 11856 11857 11858 3 25.47638 0.00000 -25.47638 0.00000 0.00000 0.00000 ; amides O-C(O)-N-C
11855 11856 11857 11859 3
11855 11856 11857 11860 3
11861 11856 11857 11858 3 20.50160 0.00000 -20.50160 0.00000 0.00000 0.00000 ; amides wlj 6/20/97
11861 11856 11857 11859 3
11861 11856 11857 11860 3
11863 11864 11865 11866 3 33.20422 0.00000 -33.20422 0.00000 0.00000 0.00000 ; methylguanidinium ion
11863 11864 11865 11869 3 20.50160 0.00000 -20.50160 0.00000 0.00000 0.00000 ; imides
11864 11865 11866 11867 3
11864 11865 11866 11868 3
11869 11865 11866 11867 3
11869 11865 11866 11868 3
11871 11872 11873 11874 3 33.20422 0.00000 -33.20422 0.00000 0.00000 0.00000 ; methylguanidinium ion
11871 11872 11873 11877 3 20.50160 0.00000 -20.50160 0.00000 0.00000 0.00000 ; imides
11872 11873 11874 11875 3
11872 11873 11874 11876 3
11877 11873 11874 11875 3
11877 11873 11874 11876 3
11879 11880 11881 11882 3 33.20422 0.00000 -33.20422 0.00000 0.00000 0.00000 ; methylguanidinium ion
11879 11880 11881 11885 3 20.50160 0.00000 -20.50160 0.00000 0.00000 0.00000 ; imides
11880 11881 11882 11883 3
11880 11881 11882 11884 3
11885 11881 11882 11883 3
11885 11881 11882 11884 3
11887 11888 11889 11890 3 33.20422 0.00000 -33.20422 0.00000 0.00000 0.00000 ; methylguanidinium ion
11887 11888 11889 11893 3 20.50160 0.00000 -20.50160 0.00000 0.00000 0.00000 ; imides
11888 11889 11890 11891 3
11888 11889 11890 11892 3
11893 11889 11890 11891 3
11893 11889 11890 11892 3
11895 11896 11897 11898 3 33.20422 0.00000 -33.20422 0.00000 0.00000 0.00000 ; methylguanidinium ion
11895 11896 11897 11901 3 20.50160 0.00000 -20.50160 0.00000 0.00000 0.00000 ; imides
11896 11897 11898 11899 3
11896 11897 11898 11900 3
11901 11897 11898 11899 3
11901 11897 11898 11900 3
11903 11904 11905 11906 3 33.20422 0.00000 -33.20422 0.00000 0.00000 0.00000 ; methylguanidinium ion
11903 11904 11905 11910 3 20.50160 0.00000 -20.50160 0.00000 0.00000 0.00000 ; imides
11904 11905 11906 11907 3 25.47638 0.00000 -25.47638 0.00000 0.00000 0.00000 ; amides O-C(O)-N-C
11904 11905 11906 11908 3
11904 11905 11906 11909 3
11910 11905 11906 11907 3 20.50160 0.00000 -20.50160 0.00000 0.00000 0.00000 ; amides wlj 6/20/97
11910 11905 11906 11908 3
11910 11905 11906 11909 3
11912 11913 11914 11915 3 33.20422 0.00000 -33.20422 0.00000 0.00000 0.00000 ; methylguanidinium ion
11912 11913 11914 11918 3 20.50160 0.00000 -20.50160 0.00000 0.00000 0.00000 ; imides
11913 11914 11915 11916 3
11913 11914 11915 11917 3
11918 11914 11915 11916 3
11918 11914 11915 11917 3
11920 11921 11922 11923 3 33.20422 0.00000 -33.20422 0.00000 0.00000 0.00000 ; methylguanidinium ion
11920 11921 11922 11926 3 20.50160 0.00000 -20.50160 0.00000 0.00000 0.00000 ; imides
11921 11922 11923 11924 3
11921 11922 11923 11925 3
11926 11922 11923 11924 3
11926 11922 11923 11925 3
11928 11929 11930 11931 3 33.20422 0.00000 -33.20422 0.00000 0.00000 0.00000 ; methylguanidinium ion
11928 11929 11930 11935 3 20.50160 0.00000 -20.50160 0.00000 0.00000 0.00000 ; imides
11929 11930 11931 11932 3 25.47638 0.00000 -25.47638 0.00000 0.00000 0.00000 ; amides O-C(O)-N-C
11929 11930 11931 11933 3
11929 11930 11931 11934 3
11935 11930 11931 11932 3 20.50160 0.00000 -20.50160 0.00000 0.00000 0.00000 ; amides wlj 6/20/97
11935 11930 11931 11933 3
11935 11930 11931 11934 3
11937 11938 11939 11940 3 33.20422 0.00000 -33.20422 0.00000 0.00000 0.00000 ; methylguanidinium ion
11937 11938 11939 11943 3 20.50160 0.00000 -20.50160 0.00000 0.00000 0.00000 ; imides
11938 11939 11940 11941 3
11938 11939 11940 11942 3
11943 11939 11940 11941 3
11943 11939 11940 11942 3
11945 11946 11947 11948 3 33.20422 0.00000 -33.20422 0.00000 0.00000 0.00000 ; methylguanidinium ion
11945 11946 11947 11951 3 20.50160 0.00000 -20.50160 0.00000 0.00000 0.00000 ; imides
11946 11947 11948 11949 3
11946 11947 11948 11950 3
11951 11947 11948 11949 3
11951 11947 11948 11950 3
11953 11954 11955 11956 3 33.20422 0.00000 -33.20422 0.00000 0.00000 0.00000 ; methylguanidinium ion
11953 11954 11955 11959 3 20.50160 0.00000 -20.50160 0.00000 0.00000 0.00000 ; imides
11954 11955 11956 11957 3
11954 11955 11956 11958 3
11959 11955 11956 11957 3
11959 11955 11956 11958 3
11961 11962 11963 11964 3 33.20422 0.00000 -33.20422 0.00000 0.00000 0.00000 ; methylguanidinium ion
11961 11962 11963 11967 3 20.50160 0.00000 -20.50160 0.00000 0.00000 0.00000 ; imides
11962 11963 11964 11965 3
11962 11963 11964 11966 3
11967 11963 11964 11965 3
11967 11963 11964 11966 3
11969 11970 11971 11972 3 33.20422 0.00000 -33.20422 0.00000 0.00000 0.00000 ; methylguanidinium ion
11969 11970 11971 11976 3 20.50160 0.00000 -20.50160 0.00000 0.00000 0.00000 ; imides
11970 11971 11972 11973 3 25.47638 0.00000 -25.47638 0.00000 0.00000 0.00000 ; amides O-C(O)-N-C
11970 11971 11972 11974 3
11970 11971 11972 11975 3
11976 11971 11972 11973 3 20.50160 0.00000 -20.50160 0.00000 0.00000 0.00000 ; amides wlj 6/20/97
11976 11971 11972 11974 3
11976 11971 11972 11975 3
11978 11979 11980 11981 3 33.20422 0.00000 -33.20422 0.00000 0.00000 0.00000 ; methylguanidinium ion
11978 11979 11980 11984 3 20.50160 0.00000 -20.50160 0.00000 0.00000 0.00000 ; imides
11979 11980 11981 11982 3
11979 11980 11981 11983 3
11984 11980 11981 11982 3
11984 11980 11981 11983 3
11986 11987 11988 11989 3 33.20422 0.00000 -33.20422 0.00000 0.00000 0.00000 ; methylguanidinium ion
11986 11987 11988 11994 3 20.50160 0.00000 -20.50160 0.00000 0.00000 0.00000 ; imides
11987 11988 11989 11990 3 25.47638 0.00000 -25.47638 0.00000 0.00000 0.00000 ; amides O-C(O)-N-C
11987 11988 11989 11992 3
11987 11988 11989 11993 3
11988 11989 11990 11991 3 16.73600 4.18400 -20.92000 0.00000 0.00000 0.00000 ; carbamates
11992 11989 11990 11991 3
11993 11989 11990 11991 3
11994 11988 11989 11990 3 20.50160 0.00000 -20.50160 0.00000 0.00000 0.00000 ; amides wlj 6/20/97
11994 11988 11989 11992 3
11994 11988 11989 11993 3
11996 11997 11998 11999 3 33.20422 0.00000 -33.20422 0.00000 0.00000 0.00000 ; methylguanidinium ion
11996 11997 11998 12002 3 20.50160 0.00000 -20.50160 0.00000 0.00000 0.00000 ; imides
11997 11998 11999 12000 3
11997 11998 11999 12001 3
12002 11998 11999 12000 3
12002 11998 11999 12001 3
12004 12005 12006 12007 3 33.20422 0.00000 -33.20422 0.00000 0.00000 0.00000 ; methylguanidinium ion
12004 12005 12006 12012 3 20.50160 0.00000 -20.50160 0.00000 0.00000 0.00000 ; imides
12005 12006 12007 12008 3 25.47638 0.00000 -25.47638 0.00000 0.00000 0.00000 ; amides O-C(O)-N-C
12005 12006 12007 12010 3
12005 12006 12007 12011 3
12006 12007 12008 12009 3 16.73600 4.18400 -20.92000 0.00000 0.00000 0.00000 ; carbamates
12010 12007 12008 12009 3
12011 12007 12008 12009 3
12012 12006 12007 12008 3 20.50160 0.00000 -20.50160 0.00000 0.00000 0.00000 ; amides wlj 6/20/97
12012 12006 12007 12010 3
12012 12006 12007 12011 3
12014 12015 12016 12017 3 33.20422 0.00000 -33.20422 0.00000 0.00000 0.00000 ; methylguanidinium ion
12014 12015 12016 12020 3 20.50160 0.00000 -20.50160 0.00000 0.00000 0.00000 ; imides
12015 12016 12017 12018 3
12015 12016 12017 12019 3
12020 12016 12017 12018 3
12020 12016 12017 12019 3
12022 12023 12024 12025 3 33.20422 0.00000 -33.20422 0.00000 0.00000 0.00000 ; methylguanidinium ion
12022 12023 12024 12028 3 20.50160 0.00000 -20.50160 0.00000 0.00000 0.00000 ; imides
12023 12024 12025 12026 3
12023 12024 12025 12027 3
12028 12024 12025 12026 3
12028 12024 12025 12027 3
12030 12031 12032 12033 3 33.20422 0.00000 -33.20422 0.00000 0.00000 0.00000 ; methylguanidinium ion
12030 12031 12032 12036 3 20.50160 0.00000 -20.50160 0.00000 0.00000 0.00000 ; imides
12031 12032 12033 12034 3
12031 12032 12033 12035 3
12036 12032 12033 12034 3
12036 12032 12033 12035 3
12038 12039 12040 12041 3 33.20422 0.00000 -33.20422 0.00000 0.00000 0.00000 ; methylguanidinium ion
12038 12039 12040 12044 3 20.50160 0.00000 -20.50160 0.00000 0.00000 0.00000 ; imides
12039 12040 12041 12042 3
12039 12040 12041 12043 3
12044 12040 12041 12042 3
12044 12040 12041 12043 3
12046 12047 12048 12049 3 33.20422 0.00000 -33.20422 0.00000 0.00000 0.00000 ; methylguanidinium ion
12046 12047 12048 12052 3 20.50160 0.00000 -20.50160 0.00000 0.00000 0.00000 ; imides
12047 12048 12049 12050 3
12047 12048 12049 12051 3
12052 12048 12049 12050 3
12052 12048 12049 12051 3
12054 12055 12056 12057 3 33.20422 0.00000 -33.20422 0.00000 0.00000 0.00000 ; methylguanidinium ion
12054 12055 12056 12060 3 20.50160 0.00000 -20.50160 0.00000 0.00000 0.00000 ; imides
12055 12056 12057 12058 3
12055 12056 12057 12059 3
12060 12056 12057 12058 3
12060 12056 12057 12059 3
12062 12063 12064 12065 3 33.20422 0.00000 -33.20422 0.00000 0.00000 0.00000 ; methylguanidinium ion
12062 12063 12064 12070 3 20.50160 0.00000 -20.50160 0.00000 0.00000 0.00000 ; imides
12063 12064 12065 12066 3 25.47638 0.00000 -25.47638 0.00000 0.00000 0.00000 ; amides O-C(O)-N-C
12063 12064 12065 12068 3
12063 12064 12065 12069 3
12064 12065 12066 12067 3 16.73600 4.18400 -20.92000 0.00000 0.00000 0.00000 ; carbamates
12068 12065 12066 12067 3
12069 12065 12066 12067 3
12070 12064 12065 12066 3 20.50160 0.00000 -20.50160 0.00000 0.00000 0.00000 ; amides wlj 6/20/97
12070 12064 12065 12068 3
12070 12064 12065 12069 3
12072 12073 12074 12075 3 33.20422 0.00000 -33.20422 0.00000 0.00000 0.00000 ; methylguanidinium ion
12072 12073 12074 12078 3 20.50160 0.00000 -20.50160 0.00000 0.00000 0.00000 ; imides
12073 12074 12075 12076 3
12073 12074 12075 12077 3
12078 12074 12075 12076 3
12078 12074 12075 12077 3
12080 12081 12082 12083 3 33.20422 0.00000 -33.20422 0.00000 0.00000 0.00000 ; methylguanidinium ion
12080 12081 12082 12086 3 20.50160 0.00000 -20.50160 0.00000 0.00000 0.00000 ; imides
12081 12082 12083 12084 3
12081 12082 12083 12085 3
12086 12082 12083 12084 3
12086 12082 12083 12085 3
12088 12089 12090 12091 3 33.20422 0.00000 -33.20422 0.00000 0.00000 0.00000 ; methylguanidinium ion
12088 12089 12090 12094 3 20.50160 0.00000 -20.50160 0.00000 0.00000 0.00000 ; imides
12089 12090 12091 12092 3
12089 12090 12091 12093 3
12094 12090 12091 12092 3
12094 12090 12091 12093 3
12096 12097 12098 12099 3 33.20422 0.00000 -33.20422 0.00000 0.00000 0.00000 ; methylguanidinium ion
12096 12097 12098 12102 3 20.50160 0.00000 -20.50160 0.00000 0.00000 0.00000 ; imides
12097 12098 12099 12100 3
12097 12098 12099 12101 3
12102 12098 12099 12100 3
12102 12098 12099 12101 3
12104 12105 12106 12107 3 33.20422 0.00000 -33.20422 0.00000 0.00000 0.00000 ; methylguanidinium ion
12104 12105 12106 12110 3 20.50160 0.00000 -20.50160 0.00000 0.00000 0.00000 ; imides
12105 12106 12107 12108 3
12105 12106 12107 12109 3
12110 12106 12107 12108 3
12110 12106 12107 12109 3
12112 12113 12114 12115 3 33.20422 0.00000 -33.20422 0.00000 0.00000 0.00000 ; methylguanidinium ion
12112 12113 12114 12118 3 20.50160 0.00000 -20.50160 0.00000 0.00000 0.00000 ; imides
12113 12114 12115 12116 3
12113 12114 12115 12117 3
12118 12114 12115 12116 3
12118 12114 12115 12117 3
12120 12121 12122 12123 3 33.20422 0.00000 -33.20422 0.00000 0.00000 0.00000 ; methylguanidinium ion
12120 12121 12122 12126 3 20.50160 0.00000 -20.50160 0.00000 0.00000 0.00000 ; imides
12121 12122 12123 12124 3
12121 12122 12123 12125 3
12126 12122 12123 12124 3
12126 12122 12123 12125 3
12128 12129 12130 12131 3 33.20422 0.00000 -33.20422 0.00000 0.00000 0.00000 ; methylguanidinium ion
12128 12129 12130 12134 3 20.50160 0.00000 -20.50160 0.00000 0.00000 0.00000 ; imides
12129 12130 12131 12132 3
12129 12130 12131 12133 3
12134 12130 12131 12132 3
12134 12130 12131 12133 3
12136 12137 12138 12139 3 33.20422 0.00000 -33.20422 0.00000 0.00000 0.00000 ; methylguanidinium ion
12136 12137 12138 12142 3 20.50160 0.00000 -20.50160 0.00000 0.00000 0.00000 ; imides
12137 12138 12139 12140 3
12137 12138 12139 12141 3
12142 12138 12139 12140 3
12142 12138 12139 12141 3
12144 12145 12146 12147 3 33.20422 0.00000 -33.20422 0.00000 0.00000 0.00000 ; methylguanidinium ion
12144 12145 12146 12150 3 20.50160 0.00000 -20.50160 0.00000 0.00000 0.00000 ; imides
12145 12146 12147 12148 3
12145 12146 12147 12149 3
12150 12146 12147 12148 3
12150 12146 12147 12149 3
12152 12153 12154 12155 3 33.20422 0.00000 -33.20422 0.00000 0.00000 0.00000 ; methylguanidinium ion
12152 12153 12154 12158 3 20.50160 0.00000 -20.50160 0.00000 0.00000 0.00000 ; imides
12153 12154 12155 12156 3
12153 12154 12155 12157 3
12158 12154 12155 12156 3
12158 12154 12155 12157 3
12160 12161 12162 12163 3 33.20422 0.00000 -33.20422 0.00000 0.00000 0.00000 ; methylguanidinium ion
12160 12161 12162 12166 3 20.50160 0.00000 -20.50160 0.00000 0.00000 0.00000 ; imides
12161 12162 12163 12164 3
12161 12162 12163 12165 3
12166 12162 12163 12164 3
12166 12162 12163 12165 3
12168 12169 12170 12171 3 33.20422 0.00000 -33.20422 0.00000 0.00000 0.00000 ; methylguanidinium ion
12168 12169 12170 12174 3 20.50160 0.00000 -20.50160 0.00000 0.00000 0.00000 ; imides
12169 12170 12171 12172 3
12169 12170 12171 12173 3
12174 12170 12171 12172 3
12174 12170 12171 12173 3
12176 12177 12178 12179 3 33.20422 0.00000 -33.20422 0.00000 0.00000 0.00000 ; methylguanidinium ion
12176 12177 12178 12182 3 20.50160 0.00000 -20.50160 0.00000 0.00000 0.00000 ; imides
12177 12178 12179 12180 3
12177 12178 12179 12181 3
12182 12178 12179 12180 3
12182 12178 12179 12181 3
12184 12185 12186 12187 3 33.20422 0.00000 -33.20422 0.00000 0.00000 0.00000 ; methylguanidinium ion
12184 12185 12186 12192 3 20.50160 0.00000 -20.50160 0.00000 0.00000 0.00000 ; imides
12185 12186 12187 12188 3 25.47638 0.00000 -25.47638 0.00000 0.00000 0.00000 ; amides O-C(O)-N-C
12185 12186 12187 12190 3
12185 12186 12187 12191 3
12186 12187 12188 12189 3 16.73600 4.18400 -20.92000 0.00000 0.00000 0.00000 ; carbamates
12190 12187 12188 12189 3
12191 12187 12188 12189 3
12192 12186 12187 12188 3 20.50160 0.00000 -20.50160 0.00000 0.00000 0.00000 ; amides wlj 6/20/97
12192 12186 12187 12190 3
12192 12186 12187 12191 3
12194 12195 12196 12197 3 33.20422 0.00000 -33.20422 0.00000 0.00000 0.00000 ; methylguanidinium ion
12194 12195 12196 12201 3 20.50160 0.00000 -20.50160 0.00000 0.00000 0.00000 ; imides
12195 12196 12197 12198 3 25.47638 0.00000 -25.47638 0.00000 0.00000 0.00000 ; amides O-C(O)-N-C
12195 12196 12197 12199 3
12195 12196 12197 12200 3
12201 12196 12197 12198 3 20.50160 0.00000 -20.50160 0.00000 0.00000 0.00000 ; amides wlj 6/20/97
12201 12196 12197 12199 3
12201 12196 12197 12200 3
12203 12204 12205 12206 3 33.20422 0.00000 -33.20422 0.00000 0.00000 0.00000 ; methylguanidinium ion
12203 12204 12205 12211 3 20.50160 0.00000 -20.50160 0.00000 0.00000 0.00000 ; imides
12204 12205 12206 12207 3 25.47638 0.00000 -25.47638 0.00000 0.00000 0.00000 ; amides O-C(O)-N-C
12204 12205 12206 12209 3
12204 12205 12206 12210 3
12205 12206 12207 12208 3 16.73600 4.18400 -20.92000 0.00000 0.00000 0.00000 ; carbamates
12209 12206 12207 12208 3
12210 12206 12207 12208 3
12211 12205 12206 12207 3 20.50160 0.00000 -20.50160 0.00000 0.00000 0.00000 ; amides wlj 6/20/97
12211 12205 12206 12209 3
12211 12205 12206 12210 3
12213 12214 12215 12216 3 33.20422 0.00000 -33.20422 0.00000 0.00000 0.00000 ; methylguanidinium ion
12213 12214 12215 12219 3 20.50160 0.00000 -20.50160 0.00000 0.00000 0.00000 ; imides
12214 12215 12216 12217 3
12214 12215 12216 12218 3
12219 12215 12216 12217 3
12219 12215 12216 12218 3
12221 12222 12223 12224 3 33.20422 0.00000 -33.20422 0.00000 0.00000 0.00000 ; methylguanidinium ion
12221 12222 12223 12227 3 20.50160 0.00000 -20.50160 0.00000 0.00000 0.00000 ; imides
12222 12223 12224 12225 3
12222 12223 12224 12226 3
12227 12223 12224 12225 3
12227 12223 12224 12226 3
12229 12230 12231 12232 3 33.20422 0.00000 -33.20422 0.00000 0.00000 0.00000 ; methylguanidinium ion
12229 12230 12231 12235 3 20.50160 0.00000 -20.50160 0.00000 0.00000 0.00000 ; imides
12230 12231 12232 12233 3
12230 12231 12232 12234 3
12235 12231 12232 12233 3
12235 12231 12232 12234 3
12237 12238 12239 12240 3 33.20422 0.00000 -33.20422 0.00000 0.00000 0.00000 ; methylguanidinium ion
12237 12238 12239 12245 3 20.50160 0.00000 -20.50160 0.00000 0.00000 0.00000 ; imides
12238 12239 12240 12241 3 25.47638 0.00000 -25.47638 0.00000 0.00000 0.00000 ; amides O-C(O)-N-C
12238 12239 12240 12243 3
12238 12239 12240 12244 3
12239 12240 12241 12242 3 16.73600 4.18400 -20.92000 0.00000 0.00000 0.00000 ; carbamates
12243 12240 12241 12242 3
12244 12240 12241 12242 3
12245 12239 12240 12241 3 20.50160 0.00000 -20.50160 0.00000 0.00000 0.00000 ; amides wlj 6/20/97
12245 12239 12240 12243 3
12245 12239 12240 12244 3
12247 12248 12249 12250 3 33.20422 0.00000 -33.20422 0.00000 0.00000 0.00000 ; methylguanidinium ion
12247 12248 12249 12253 3 20.50160 0.00000 -20.50160 0.00000 0.00000 0.00000 ; imides
12248 12249 12250 12251 3
12248 12249 12250 12252 3
12253 12249 12250 12251 3
12253 12249 12250 12252 3
12255 12256 12257 12258 3 33.20422 0.00000 -33.20422 0.00000 0.00000 0.00000 ; methylguanidinium ion
12255 12256 12257 12261 3 20.50160 0.00000 -20.50160 0.00000 0.00000 0.00000 ; imides
12256 12257 12258 12259 3
12256 12257 12258 12260 3
12261 12257 12258 12259 3
12261 12257 12258 12260 3
12263 12264 12265 12266 3 33.20422 0.00000 -33.20422 0.00000 0.00000 0.00000 ; methylguanidinium ion
12263 12264 12265 12269 3 20.50160 0.00000 -20.50160 0.00000 0.00000 0.00000 ; imides
12264 12265 12266 12267 3
12264 12265 12266 12268 3
12269 12265 12266 12267 3
12269 12265 12266 12268 3
12271 12272 12273 12274 3 33.20422 0.00000 -33.20422 0.00000 0.00000 0.00000 ; methylguanidinium ion
12271 12272 12273 12277 3 20.50160 0.00000 -20.50160 0.00000 0.00000 0.00000 ; imides
12272 12273 12274 12275 3
12272 12273 12274 12276 3
12277 12273 12274 12275 3
12277 12273 12274 12276 3
12279 12280 12281 12282 3 33.20422 0.00000 -33.20422 0.00000 0.00000 0.00000 ; methylguanidinium ion
12279 12280 12281 12285 3 20.50160 0.00000 -20.50160 0.00000 0.00000 0.00000 ; imides
12280 12281 12282 12283 3
12280 12281 12282 12284 3
12285 12281 12282 12283 3
12285 12281 12282 12284 3
12287 12288 12289 12290 3 33.20422 0.00000 -33.20422 0.00000 0.00000 0.00000 ; methylguanidinium ion
12287 12288 12289 12293 3 20.50160 0.00000 -20.50160 0.00000 0.00000 0.00000 ; imides
12288 12289 12290 12291 3
12288 12289 12290 12292 3
12293 12289 12290 12291 3
12293 12289 12290 12292 3
12295 12296 12297 12298 3 33.20422 0.00000 -33.20422 0.00000 0.00000 0.00000 ; methylguanidinium ion
12295 12296 12297 12301 3 20.50160 0.00000 -20.50160 0.00000 0.00000 0.00000 ; imides
12296 12297 12298 12299 3
12296 12297 12298 12300 3
12301 12297 12298 12299 3
12301 12297 12298 12300 3
12303 12304 12305 12306 3 33.20422 0.00000 -33.20422 0.00000 0.00000 0.00000 ; methylguanidinium ion
12303 12304 12305 12309 3 20.50160 0.00000 -20.50160 0.00000 0.00000 0.00000 ; imides
12304 12305 12306 12307 3
12304 12305 12306 12308 3
12309 12305 12306 12307 3
12309 12305 12306 12308 3
12311 12312 12313 12314 3 33.20422 0.00000 -33.20422 0.00000 0.00000 0.00000 ; methylguanidinium ion
12311 12312 12313 12317 3 20.50160 0.00000 -20.50160 0.00000 0.00000 0.00000 ; imides
12312 12313 12314 12315 3
12312 12313 12314 12316 3
12317 12313 12314 12315 3
12317 12313 12314 12316 3
12319 12320 12321 12322 3 33.20422 0.00000 -33.20422 0.00000 0.00000 0.00000 ; methylguanidinium ion
12319 12320 12321 12325 3 20.50160 0.00000 -20.50160 0.00000 0.00000 0.00000 ; imides
12320 12321 12322 12323 3
12320 12321 12322 12324 3
12325 12321 12322 12323 3
12325 12321 12322 12324 3
12327 12328 12329 12330 3 33.20422 0.00000 -33.20422 0.00000 0.00000 0.00000 ; methylguanidinium ion
12327 12328 12329 12333 3 20.50160 0.00000 -20.50160 0.00000 0.00000 0.00000 ; imides
12328 12329 12330 12331 3
12328 12329 12330 12332 3
12333 12329 12330 12331 3
12333 12329 12330 12332 3
12335 12336 12337 12338 3 33.20422 0.00000 -33.20422 0.00000 0.00000 0.00000 ; methylguanidinium ion
12335 12336 12337 12341 3 20.50160 0.00000 -20.50160 0.00000 0.00000 0.00000 ; imides
12336 12337 12338 12339 3
12336 12337 12338 12340 3
12341 12337 12338 12339 3
12341 12337 12338 12340 3
12343 12344 12345 12346 3 33.20422 0.00000 -33.20422 0.00000 0.00000 0.00000 ; methylguanidinium ion
12343 12344 12345 12349 3 20.50160 0.00000 -20.50160 0.00000 0.00000 0.00000 ; imides
12344 12345 12346 12347 3
12344 12345 12346 12348 3
12349 12345 12346 12347 3
12349 12345 12346 12348 3
12351 12352 12353 12354 3 33.20422 0.00000 -33.20422 0.00000 0.00000 0.00000 ; methylguanidinium ion
12351 12352 12353 12357 3 20.50160 0.00000 -20.50160 0.00000 0.00000 0.00000 ; imides
12352 12353 12354 12355 3
12352 12353 12354 12356 3
12357 12353 12354 12355 3
12357 12353 12354 12356 3
12359 12360 12361 12362 3 33.20422 0.00000 -33.20422 0.00000 0.00000 0.00000 ; methylguanidinium ion
12359 12360 12361 12365 3 20.50160 0.00000 -20.50160 0.00000 0.00000 0.00000 ; imides
12360 12361 12362 12363 3
12360 12361 12362 12364 3
12365 12361 12362 12363 3
12365 12361 12362 12364 3
12367 12368 12369 12370 3 33.20422 0.00000 -33.20422 0.00000 0.00000 0.00000 ; methylguanidinium ion
12367 12368 12369 12373 3 20.50160 0.00000 -20.50160 0.00000 0.00000 0.00000 ; imides
12368 12369 12370 12371 3
12368 12369 12370 12372 3
12373 12369 12370 12371 3
12373 12369 12370 12372 3
12375 12376 12377 12378 3 33.20422 0.00000 -33.20422 0.00000 0.00000 0.00000 ; methylguanidinium ion
12375 12376 12377 12381 3 20.50160 0.00000 -20.50160 0.00000 0.00000 0.00000 ; imides
12376 12377 12378 12379 3
12376 12377 12378 12380 3
12381 12377 12378 12379 3
12381 12377 12378 12380 3
12383 12384 12385 12386 3 33.20422 0.00000 -33.20422 0.00000 0.00000 0.00000 ; methylguanidinium ion
12383 12384 12385 12389 3 20.50160 0.00000 -20.50160 0.00000 0.00000 0.00000 ; imides
12384 12385 12386 12387 3
12384 12385 12386 12388 3
12389 12385 12386 12387 3
12389 12385 12386 12388 3
12391 12392 12393 12394 3 33.20422 0.00000 -33.20422 0.00000 0.00000 0.00000 ; methylguanidinium ion
12391 12392 12393 12397 3 20.50160 0.00000 -20.50160 0.00000 0.00000 0.00000 ; imides
12392 12393 12394 12395 3
12392 12393 12394 12396 3
12397 12393 12394 12395 3
12397 12393 12394 12396 3
12399 12400 12401 12402 3 33.20422 0.00000 -33.20422 0.00000 0.00000 0.00000 ; methylguanidinium ion
12399 12400 12401 12405 3 20.50160 0.00000 -20.50160 0.00000 0.00000 0.00000 ; imides
12400 12401 12402 12403 3
12400 12401 12402 12404 3
12405 12401 12402 12403 3
12405 12401 12402 12404 3
12407 12408 12409 12410 3 33.20422 0.00000 -33.20422 0.00000 0.00000 0.00000 ; methylguanidinium ion
12407 12408 12409 12413 3 20.50160 0.00000 -20.50160 0.00000 0.00000 0.00000 ; imides
12408 12409 12410 12411 3
12408 12409 12410 12412 3
12413 12409 12410 12411 3
12413 12409 12410 12412 3
12415 12416 12417 12418 3 33.20422 0.00000 -33.20422 0.00000 0.00000 0.00000 ; methylguanidinium ion
12415 12416 12417 12423 3 20.50160 0.00000 -20.50160 0.00000 0.00000 0.00000 ; imides
12416 12417 12418 12419 3 25.47638 0.00000 -25.47638 0.00000 0.00000 0.00000 ; amides O-C(O)-N-C
12416 12417 12418 12421 3
12416 12417 12418 12422 3
12417 12418 12419 12420 3 16.73600 4.18400 -20.92000 0.00000 0.00000 0.00000 ; carbamates
12421 12418 12419 12420 3
12422 12418 12419 12420 3
12423 12417 12418 12419 3 20.50160 0.00000 -20.50160 0.00000 0.00000 0.00000 ; amides wlj 6/20/97
12423 12417 12418 12421 3
12423 12417 12418 12422 3
12425 12426 12427 12428 3 33.20422 0.00000 -33.20422 0.00000 0.00000 0.00000 ; methylguanidinium ion
12425 12426 12427 12431 3 20.50160 0.00000 -20.50160 0.00000 0.00000 0.00000 ; imides
12426 12427 12428 12429 3
12426 12427 12428 12430 3
12431 12427 12428 12429 3
12431 12427 12428 12430 3
12433 12434 12435 12436 3 33.20422 0.00000 -33.20422 0.00000 0.00000 0.00000 ; methylguanidinium ion
12433 12434 12435 12439 3 20.50160 0.00000 -20.50160 0.00000 0.00000 0.00000 ; imides
12434 12435 12436 12437 3
12434 12435 12436 12438 3
12439 12435 12436 12437 3
12439 12435 12436 12438 3
12441 12442 12443 12444 3 33.20422 0.00000 -33.20422 0.00000 0.00000 0.00000 ; methylguanidinium ion
12441 12442 12443 12447 3 20.50160 0.00000 -20.50160 0.00000 0.00000 0.00000 ; imides
12442 12443 12444 12445 3
12442 12443 12444 12446 3
12447 12443 12444 12445 3
12447 12443 12444 12446 3
12449 12450 12451 12452 3 33.20422 0.00000 -33.20422 0.00000 0.00000 0.00000 ; methylguanidinium ion
12449 12450 12451 12455 3 20.50160 0.00000 -20.50160 0.00000 0.00000 0.00000 ; imides
12450 12451 12452 12453 3
12450 12451 12452 12454 3
12455 12451 12452 12453 3
12455 12451 12452 12454 3
12457 12458 12459 12460 3 33.20422 0.00000 -33.20422 0.00000 0.00000 0.00000 ; methylguanidinium ion
12457 12458 12459 12463 3 20.50160 0.00000 -20.50160 0.00000 0.00000 0.00000 ; imides
12458 12459 12460 12461 3
12458 12459 12460 12462 3
12463 12459 12460 12461 3
12463 12459 12460 12462 3
12465 12466 12467 12468 3 33.20422 0.00000 -33.20422 0.00000 0.00000 0.00000 ; methylguanidinium ion
12465 12466 12467 12471 3 20.50160 0.00000 -20.50160 0.00000 0.00000 0.00000 ; imides
12466 12467 12468 12469 3
12466 12467 12468 12470 3
12471 12467 12468 12469 3
12471 12467 12468 12470 3
12473 12474 12475 12476 3 33.20422 0.00000 -33.20422 0.00000 0.00000 0.00000 ; methylguanidinium ion
12473 12474 12475 12479 3 20.50160 0.00000 -20.50160 0.00000 0.00000 0.00000 ; imides
12474 12475 12476 12477 3
12474 12475 12476 12478 3
12479 12475 12476 12477 3
12479 12475 12476 12478 3
12481 12482 12483 12484 3 33.20422 0.00000 -33.20422 0.00000 0.00000 0.00000 ; methylguanidinium ion
12481 12482 12483 12487 3 20.50160 0.00000 -20.50160 0.00000 0.00000 0.00000 ; imides
12482 12483 12484 12485 3
12482 12483 12484 12486 3
12487 12483 12484 12485 3
12487 12483 12484 12486 3
12489 12490 12491 12492 3 33.20422 0.00000 -33.20422 0.00000 0.00000 0.00000 ; methylguanidinium ion
12489 12490 12491 12497 3 20.50160 0.00000 -20.50160 0.00000 0.00000 0.00000 ; imides
12490 12491 12492 12493 3 25.47638 0.00000 -25.47638 0.00000 0.00000 0.00000 ; amides O-C(O)-N-C
12490 12491 12492 12495 3
12490 12491 12492 12496 3
12491 12492 12493 12494 3 16.73600 4.18400 -20.92000 0.00000 0.00000 0.00000 ; carbamates
12495 12492 12493 12494 3
12496 12492 12493 12494 3
12497 12491 12492 12493 3 20.50160 0.00000 -20.50160 0.00000 0.00000 0.00000 ; amides wlj 6/20/97
12497 12491 12492 12495 3
12497 12491 12492 12496 3
12499 12500 12501 12502 3 33.20422 0.00000 -33.20422 0.00000 0.00000 0.00000 ; methylguanidinium ion
12499 12500 12501 12505 3 20.50160 0.00000 -20.50160 0.00000 0.00000 0.00000 ; imides
12500 12501 12502 12503 3
12500 12501 12502 12504 3
12505 12501 12502 12503 3
12505 12501 12502 12504 3
12507 12508 12509 12510 3 33.20422 0.00000 -33.20422 0.00000 0.00000 0.00000 ; methylguanidinium ion
12507 12508 12509 12513 3 20.50160 0.00000 -20.50160 0.00000 0.00000 0.00000 ; imides
12508 12509 12510 12511 3
12508 12509 12510 12512 3
12513 12509 12510 12511 3
12513 12509 12510 12512 3
12515 12516 12517 12518 3 33.20422 0.00000 -33.20422 0.00000 0.00000 0.00000 ; methylguanidinium ion
12515 12516 12517 12523 3 20.50160 0.00000 -20.50160 0.00000 0.00000 0.00000 ; imides
12516 12517 12518 12519 3 25.47638 0.00000 -25.47638 0.00000 0.00000 0.00000 ; amides O-C(O)-N-C
12516 12517 12518 12521 3
12516 12517 12518 12522 3
12517 12518 12519 12520 3 16.73600 4.18400 -20.92000 0.00000 0.00000 0.00000 ; carbamates
12521 12518 12519 12520 3
12522 12518 12519 12520 3
12523 12517 12518 12519 3 20.50160 0.00000 -20.50160 0.00000 0.00000 0.00000 ; amides wlj 6/20/97
12523 12517 12518 12521 3
12523 12517 12518 12522 3
12525 12526 12527 12528 3 33.20422 0.00000 -33.20422 0.00000 0.00000 0.00000 ; methylguanidinium ion
12525 12526 12527 12531 3 20.50160 0.00000 -20.50160 0.00000 0.00000 0.00000 ; imides
12526 12527 12528 12529 3
12526 12527 12528 12530 3
12531 12527 12528 12529 3
12531 12527 12528 12530 3
12533 12534 12535 12536 3 33.20422 0.00000 -33.20422 0.00000 0.00000 0.00000 ; methylguanidinium ion
12533 12534 12535 12539 3 20.50160 0.00000 -20.50160 0.00000 0.00000 0.00000 ; imides
12534 12535 12536 12537 3
12534 12535 12536 12538 3
12539 12535 12536 12537 3
12539 12535 12536 12538 3
12541 12542 12543 12544 3 33.20422 0.00000 -33.20422 0.00000 0.00000 0.00000 ; methylguanidinium ion
12541 12542 12543 12547 3 20.50160 0.00000 -20.50160 0.00000 0.00000 0.00000 ; imides
12542 12543 12544 12545 3
12542 12543 12544 12546 3
12547 12543 12544 12545 3
12547 12543 12544 12546 3
12549 12550 12551 12552 3 33.20422 0.00000 -33.20422 0.00000 0.00000 0.00000 ; methylguanidinium ion
12549 12550 12551 12557 3 20.50160 0.00000 -20.50160 0.00000 0.00000 0.00000 ; imides
12550 12551 12552 12553 3 25.47638 0.00000 -25.47638 0.00000 0.00000 0.00000 ; amides O-C(O)-N-C
12550 12551 12552 12555 3
12550 12551 12552 12556 3
12551 12552 12553 12554 3 16.73600 4.18400 -20.92000 0.00000 0.00000 0.00000 ; carbamates
12555 12552 12553 12554 3
12556 12552 12553 12554 3
12557 12551 12552 12553 3 20.50160 0.00000 -20.50160 0.00000 0.00000 0.00000 ; amides wlj 6/20/97
12557 12551 12552 12555 3
12557 12551 12552 12556 3
12559 12560 12561 12562 3 33.20422 0.00000 -33.20422 0.00000 0.00000 0.00000 ; methylguanidinium ion
12559 12560 12561 12565 3 20.50160 0.00000 -20.50160 0.00000 0.00000 0.00000 ; imides
12560 12561 12562 12563 3
12560 12561 12562 12564 3
12565 12561 12562 12563 3
12565 12561 12562 12564 3
12567 12568 12569 12570 3 33.20422 0.00000 -33.20422 0.00000 0.00000 0.00000 ; methylguanidinium ion
12567 12568 12569 12573 3 20.50160 0.00000 -20.50160 0.00000 0.00000 0.00000 ; imides
12568 12569 12570 12571 3
12568 12569 12570 12572 3
12573 12569 12570 12571 3
12573 12569 12570 12572 3
12575 12576 12577 12578 3 33.20422 0.00000 -33.20422 0.00000 0.00000 0.00000 ; methylguanidinium ion
12575 12576 12577 12581 3 20.50160 0.00000 -20.50160 0.00000 0.00000 0.00000 ; imides
12576 12577 12578 12579 3
12576 12577 12578 12580 3
12581 12577 12578 12579 3
12581 12577 12578 12580 3
12583 12584 12585 12586 3 33.20422 0.00000 -33.20422 0.00000 0.00000 0.00000 ; methylguanidinium ion
12583 12584 12585 12589 3 20.50160 0.00000 -20.50160 0.00000 0.00000 0.00000 ; imides
12584 12585 12586 12587 3
12584 12585 12586 12588 3
12589 12585 12586 12587 3
12589 12585 12586 12588 3
12591 12592 12593 12594 3 33.20422 0.00000 -33.20422 0.00000 0.00000 0.00000 ; methylguanidinium ion
12591 12592 12593 12597 3 20.50160 0.00000 -20.50160 0.00000 0.00000 0.00000 ; imides
12592 12593 12594 12595 3
12592 12593 12594 12596 3
12597 12593 12594 12595 3
12597 12593 12594 12596 3
12599 12600 12601 12602 3 33.20422 0.00000 -33.20422 0.00000 0.00000 0.00000 ; methylguanidinium ion
12599 12600 12601 12605 3 20.50160 0.00000 -20.50160 0.00000 0.00000 0.00000 ; imides
12600 12601 12602 12603 3
12600 12601 12602 12604 3
12605 12601 12602 12603 3
12605 12601 12602 12604 3
12607 12608 12609 12610 3 33.20422 0.00000 -33.20422 0.00000 0.00000 0.00000 ; methylguanidinium ion
12607 12608 12609 12613 3 20.50160 0.00000 -20.50160 0.00000 0.00000 0.00000 ; imides
12608 12609 12610 12611 3
12608 12609 12610 12612 3
12613 12609 12610 12611 3
12613 12609 12610 12612 3
12615 12616 12617 12618 3 33.20422 0.00000 -33.20422 0.00000 0.00000 0.00000 ; methylguanidinium ion
12615 12616 12617 12621 3 20.50160 0.00000 -20.50160 0.00000 0.00000 0.00000 ; imides
12616 12617 12618 12619 3
12616 12617 12618 12620 3
12621 12617 12618 12619 3
12621 12617 12618 12620 3
12623 12624 12625 12626 3 33.20422 0.00000 -33.20422 0.00000 0.00000 0.00000 ; methylguanidinium ion
12623 12624 12625 12629 3 20.50160 0.00000 -20.50160 0.00000 0.00000 0.00000 ; imides
12624 12625 12626 12627 3
12624 12625 12626 12628 3
12629 12625 12626 12627 3
12629 12625 12626 12628 3
12631 12632 12633 12634 3 33.20422 0.00000 -33.20422 0.00000 0.00000 0.00000 ; methylguanidinium ion
12631 12632 12633 12637 3 20.50160 0.00000 -20.50160 0.00000 0.00000 0.00000 ; imides
12632 12633 12634 12635 3
12632 12633 12634 12636 3
12637 12633 12634 12635 3
12637 12633 12634 12636 3
12639 12640 12641 12642 3 33.20422 0.00000 -33.20422 0.00000 0.00000 0.00000 ; methylguanidinium ion
12639 12640 12641 12645 3 20.50160 0.00000 -20.50160 0.00000 0.00000 0.00000 ; imides
12640 12641 12642 12643 3
12640 12641 12642 12644 3
12645 12641 12642 12643 3
12645 12641 12642 12644 3
12647 12648 12649 12650 3 33.20422 0.00000 -33.20422 0.00000 0.00000 0.00000 ; methylguanidinium ion
12647 12648 12649 12653 3 20.50160 0.00000 -20.50160 0.00000 0.00000 0.00000 ; imides
12648 12649 12650 12651 3
12648 12649 12650 12652 3
12653 12649 12650 12651 3
12653 12649 12650 12652 3
12655 12656 12657 12658 3 33.20422 0.00000 -33.20422 0.00000 0.00000 0.00000 ; methylguanidinium ion
12655 12656 12657 12661 3 20.50160 0.00000 -20.50160 0.00000 0.00000 0.00000 ; imides
12656 12657 12658 12659 3
12656 12657 12658 12660 3
12661 12657 12658 12659 3
12661 12657 12658 12660 3
12663 12664 12665 12666 3 33.20422 0.00000 -33.20422 0.00000 0.00000 0.00000 ; methylguanidinium ion
12663 12664 12665 12669 3 20.50160 0.00000 -20.50160 0.00000 0.00000 0.00000 ; imides
12664 12665 12666 12667 3
12664 12665 12666 12668 3
12669 12665 12666 12667 3
12669 12665 12666 12668 3
12671 12672 12673 12674 3 33.20422 0.00000 -33.20422 0.00000 0.00000 0.00000 ; methylguanidinium ion
12671 12672 12673 12679 3 20.50160 0.00000 -20.50160 0.00000 0.00000 0.00000 ; imides
12672 12673 12674 12675 3 25.47638 0.00000 -25.47638 0.00000 0.00000 0.00000 ; amides O-C(O)-N-C
12672 12673 12674 12677 3
12672 12673 12674 12678 3
12673 12674 12675 12676 3 16.73600 4.18400 -20.92000 0.00000 0.00000 0.00000 ; carbamates
12677 12674 12675 12676 3
12678 12674 12675 12676 3
12679 12673 12674 12675 3 20.50160 0.00000 -20.50160 0.00000 0.00000 0.00000 ; amides wlj 6/20/97
12679 12673 12674 12677 3
12679 12673 12674 12678 3
12681 12682 12683 12684 3 33.20422 0.00000 -33.20422 0.00000 0.00000 0.00000 ; methylguanidinium ion
12681 12682 12683 12687 3 20.50160 0.00000 -20.50160 0.00000 0.00000 0.00000 ; imides
12682 12683 12684 12685 3
12682 12683 12684 12686 3
12687 12683 12684 12685 3
12687 12683 12684 12686 3
12689 12690 12691 12692 3 33.20422 0.00000 -33.20422 0.00000 0.00000 0.00000 ; methylguanidinium ion
12689 12690 12691 12695 3 20.50160 0.00000 -20.50160 0.00000 0.00000 0.00000 ; imides
12690 12691 12692 12693 3
12690 12691 12692 12694 3
12695 12691 12692 12693 3
12695 12691 12692 12694 3
12697 12698 12699 12700 3 33.20422 0.00000 -33.20422 0.00000 0.00000 0.00000 ; methylguanidinium ion
12697 12698 12699 12703 3 20.50160 0.00000 -20.50160 0.00000 0.00000 0.00000 ; imides
12698 12699 12700 12701 3
12698 12699 12700 12702 3
12703 12699 12700 12701 3
12703 12699 12700 12702 3
12705 12706 12707 12708 3 33.20422 0.00000 -33.20422 0.00000 0.00000 0.00000 ; methylguanidinium ion
12705 12706 12707 12711 3 20.50160 0.00000 -20.50160 0.00000 0.00000 0.00000 ; imides
12706 12707 12708 12709 3
12706 12707 12708 12710 3
12711 12707 12708 12709 3
12711 12707 12708 12710 3
12713 12714 12715 12716 3 33.20422 0.00000 -33.20422 0.00000 0.00000 0.00000 ; methylguanidinium ion
12713 12714 12715 12719 3 20.50160 0.00000 -20.50160 0.00000 0.00000 0.00000 ; imides
12714 12715 12716 12717 3
12714 12715 12716 12718 3
12719 12715 12716 12717 3
12719 12715 12716 12718 3
12721 12722 12723 12724 3 33.20422 0.00000 -33.20422 0.00000 0.00000 0.00000 ; methylguanidinium ion
12721 12722 12723 12727 3 20.50160 0.00000 -20.50160 0.00000 0.00000 0.00000 ; imides
12722 12723 12724 12725 3
12722 12723 12724 12726 3
12727 12723 12724 12725 3
12727 12723 12724 12726 3
12729 12730 12731 12732 3 33.20422 0.00000 -33.20422 0.00000 0.00000 0.00000 ; methylguanidinium ion
12729 12730 12731 12735 3 20.50160 0.00000 -20.50160 0.00000 0.00000 0.00000 ; imides
12730 12731 12732 12733 3
12730 12731 12732 12734 3
12735 12731 12732 12733 3
12735 12731 12732 12734 3
12737 12738 12739 12740 3 33.20422 0.00000 -33.20422 0.00000 0.00000 0.00000 ; methylguanidinium ion
12737 12738 12739 12743 3 20.50160 0.00000 -20.50160 0.00000 0.00000 0.00000 ; imides
12738 12739 12740 12741 3
12738 12739 12740 12742 3
12743 12739 12740 12741 3
12743 12739 12740 12742 3
12745 12746 12747 12748 3 33.20422 0.00000 -33.20422 0.00000 0.00000 0.00000 ; methylguanidinium ion
12745 12746 12747 12751 3 20.50160 0.00000 -20.50160 0.00000 0.00000 0.00000 ; imides
12746 12747 12748 12749 3
12746 12747 12748 12750 3
12751 12747 12748 12749 3
12751 12747 12748 12750 3
12753 12754 12755 12756 3 33.20422 0.00000 -33.20422 0.00000 0.00000 0.00000 ; methylguanidinium ion
12753 12754 12755 12759 3 20.50160 0.00000 -20.50160 0.00000 0.00000 0.00000 ; imides
12754 12755 12756 12757 3
12754 12755 12756 12758 3
12759 12755 12756 12757 3
12759 12755 12756 12758 3
12761 12762 12763 12764 3 33.20422 0.00000 -33.20422 0.00000 0.00000 0.00000 ; methylguanidinium ion
12761 12762 12763 12767 3 20.50160 0.00000 -20.50160 0.00000 0.00000 0.00000 ; imides
12762 12763 12764 12765 3
12762 12763 12764 12766 3
12767 12763 12764 12765 3
12767 12763 12764 12766 3
12769 12770 12771 12772 3 33.20422 0.00000 -33.20422 0.00000 0.00000 0.00000 ; methylguanidinium ion
12769 12770 12771 12775 3 20.50160 0.00000 -20.50160 0.00000 0.00000 0.00000 ; imides
12770 12771 12772 12773 3
12770 12771 12772 12774 3
12775 12771 12772 12773 3
12775 12771 12772 12774 3
12777 12778 12779 12780 3 33.20422 0.00000 -33.20422 0.00000 0.00000 0.00000 ; methylguanidinium ion
12777 12778 12779 12783 3 20.50160 0.00000 -20.50160 0.00000 0.00000 0.00000 ; imides
12778 12779 12780 12781 3
12778 12779 12780 12782 3
12783 12779 12780 12781 3
12783 12779 12780 12782 3
12785 12786 12787 12788 3 33.20422 0.00000 -33.20422 0.00000 0.00000 0.00000 ; methylguanidinium ion
12785 12786 12787 12791 3 20.50160 0.00000 -20.50160 0.00000 0.00000 0.00000 ; imides
12786 12787 12788 12789 3
12786 12787 12788 12790 3
12791 12787 12788 12789 3
12791 12787 12788 12790 3
12793 12794 12795 12796 3 33.20422 0.00000 -33.20422 0.00000 0.00000 0.00000 ; methylguanidinium ion
12793 12794 12795 12799 3 20.50160 0.00000 -20.50160 0.00000 0.00000 0.00000 ; imides
12794 12795 12796 12797 3
12794 12795 12796 12798 3
12799 12795 12796 12797 3
12799 12795 12796 12798 3
12801 12802 12803 12804 3 33.20422 0.00000 -33.20422 0.00000 0.00000 0.00000 ; methylguanidinium ion
12801 12802 12803 12807 3 20.50160 0.00000 -20.50160 0.00000 0.00000 0.00000 ; imides
12802 12803 12804 12805 3
12802 12803 12804 12806 3
12807 12803 12804 12805 3
12807 12803 12804 12806 3
12809 12810 12811 12812 3 33.20422 0.00000 -33.20422 0.00000 0.00000 0.00000 ; methylguanidinium ion
12809 12810 12811 12815 3 20.50160 0.00000 -20.50160 0.00000 0.00000 0.00000 ; imides
12810 12811 12812 12813 3
12810 12811 12812 12814 3
12815 12811 12812 12813 3
12815 12811 12812 12814 3
12817 12818 12819 12820 3 33.20422 0.00000 -33.20422 0.00000 0.00000 0.00000 ; methylguanidinium ion
12817 12818 12819 12823 3 20.50160 0.00000 -20.50160 0.00000 0.00000 0.00000 ; imides
12818 12819 12820 12821 3
12818 12819 12820 12822 3
12823 12819 12820 12821 3
12823 12819 12820 12822 3
12825 12826 12827 12828 3 33.20422 0.00000 -33.20422 0.00000 0.00000 0.00000 ; methylguanidinium ion
12825 12826 12827 12831 3 20.50160 0.00000 -20.50160 0.00000 0.00000 0.00000 ; imides
12826 12827 12828 12829 3
12826 12827 12828 12830 3
12831 12827 12828 12829 3
12831 12827 12828 12830 3
12833 12834 12835 12836 3 33.20422 0.00000 -33.20422 0.00000 0.00000 0.00000 ; methylguanidinium ion
12833 12834 12835 12841 3 20.50160 0.00000 -20.50160 0.00000 0.00000 0.00000 ; imides
12834 12835 12836 12837 3 25.47638 0.00000 -25.47638 0.00000 0.00000 0.00000 ; amides O-C(O)-N-C
12834 12835 12836 12839 3
12834 12835 12836 12840 3
12835 12836 12837 12838 3 16.73600 4.18400 -20.92000 0.00000 0.00000 0.00000 ; carbamates
12839 12836 12837 12838 3
12840 12836 12837 12838 3
12841 12835 12836 12837 3 20.50160 0.00000 -20.50160 0.00000 0.00000 0.00000 ; amides wlj 6/20/97
12841 12835 12836 12839 3
12841 12835 12836 12840 3
12843 12844 12845 12846 3 33.20422 0.00000 -33.20422 0.00000 0.00000 0.00000 ; methylguanidinium ion
12843 12844 12845 12849 3 20.50160 0.00000 -20.50160 0.00000 0.00000 0.00000 ; imides
12844 12845 12846 12847 3
12844 12845 12846 12848 3
12849 12845 12846 12847 3
12849 12845 12846 12848 3
12851 12852 12853 12854 3 33.20422 0.00000 -33.20422 0.00000 0.00000 0.00000 ; methylguanidinium ion
12851 12852 12853 12857 3 20.50160 0.00000 -20.50160 0.00000 0.00000 0.00000 ; imides
12852 12853 12854 12855 3
12852 12853 12854 12856 3
12857 12853 12854 12855 3
12857 12853 12854 12856 3
12859 12860 12861 12862 3 33.20422 0.00000 -33.20422 0.00000 0.00000 0.00000 ; methylguanidinium ion
12859 12860 12861 12867 3 20.50160 0.00000 -20.50160 0.00000 0.00000 0.00000 ; imides
12860 12861 12862 12863 3 25.47638 0.00000 -25.47638 0.00000 0.00000 0.00000 ; amides O-C(O)-N-C
12860 12861 12862 12865 3
12860 12861 12862 12866 3
12861 12862 12863 12864 3 16.73600 4.18400 -20.92000 0.00000 0.00000 0.00000 ; carbamates
12865 12862 12863 12864 3
12866 12862 12863 12864 3
12867 12861 12862 12863 3 20.50160 0.00000 -20.50160 0.00000 0.00000 0.00000 ; amides wlj 6/20/97
12867 12861 12862 12865 3
12867 12861 12862 12866 3
12869 12870 12871 12872 3 33.20422 0.00000 -33.20422 0.00000 0.00000 0.00000 ; methylguanidinium ion
12869 12870 12871 12877 3 20.50160 0.00000 -20.50160 0.00000 0.00000 0.00000 ; imides
12870 12871 12872 12873 3 25.47638 0.00000 -25.47638 0.00000 0.00000 0.00000 ; amides O-C(O)-N-C
12870 12871 12872 12875 3
12870 12871 12872 12876 3
12871 12872 12873 12874 3 16.73600 4.18400 -20.92000 0.00000 0.00000 0.00000 ; carbamates
12875 12872 12873 12874 3
12876 12872 12873 12874 3
12877 12871 12872 12873 3 20.50160 0.00000 -20.50160 0.00000 0.00000 0.00000 ; amides wlj 6/20/97
12877 12871 12872 12875 3
12877 12871 12872 12876 3
12879 12880 12881 12882 3 33.20422 0.00000 -33.20422 0.00000 0.00000 0.00000 ; methylguanidinium ion
12879 12880 12881 12885 3 20.50160 0.00000 -20.50160 0.00000 0.00000 0.00000 ; imides
12880 12881 12882 12883 3
12880 12881 12882 12884 3
12885 12881 12882 12883 3
12885 12881 12882 12884 3
12887 12888 12889 12890 3 33.20422 0.00000 -33.20422 0.00000 0.00000 0.00000 ; methylguanidinium ion
12887 12888 12889 12893 3 20.50160 0.00000 -20.50160 0.00000 0.00000 0.00000 ; imides
12888 12889 12890 12891 3
12888 12889 12890 12892 3
12893 12889 12890 12891 3
12893 12889 12890 12892 3
12895 12896 12897 12898 3 33.20422 0.00000 -33.20422 0.00000 0.00000 0.00000 ; methylguanidinium ion
12895 12896 12897 12901 3 20.50160 0.00000 -20.50160 0.00000 0.00000 0.00000 ; imides
12896 12897 12898 12899 3
12896 12897 12898 12900 3
12901 12897 12898 12899 3
12901 12897 12898 12900 3
12903 12904 12905 12906 3 33.20422 0.00000 -33.20422 0.00000 0.00000 0.00000 ; methylguanidinium ion
12903 12904 12905 12911 3 20.50160 0.00000 -20.50160 0.00000 0.00000 0.00000 ; imides
12904 12905 12906 12907 3 25.47638 0.00000 -25.47638 0.00000 0.00000 0.00000 ; amides O-C(O)-N-C
12904 12905 12906 12909 3
12904 12905 12906 12910 3
12905 12906 12907 12908 3 16.73600 4.18400 -20.92000 0.00000 0.00000 0.00000 ; carbamates
12909 12906 12907 12908 3
12910 12906 12907 12908 3
12911 12905 12906 12907 3 20.50160 0.00000 -20.50160 0.00000 0.00000 0.00000 ; amides wlj 6/20/97
12911 12905 12906 12909 3
12911 12905 12906 12910 3
12913 12914 12915 12916 3 33.20422 0.00000 -33.20422 0.00000 0.00000 0.00000 ; methylguanidinium ion
12913 12914 12915 12919 3 20.50160 0.00000 -20.50160 0.00000 0.00000 0.00000 ; imides
12914 12915 12916 12917 3
12914 12915 12916 12918 3
12919 12915 12916 12917 3
12919 12915 12916 12918 3
12921 12922 12923 12924 3 33.20422 0.00000 -33.20422 0.00000 0.00000 0.00000 ; methylguanidinium ion
12921 12922 12923 12927 3 20.50160 0.00000 -20.50160 0.00000 0.00000 0.00000 ; imides
12922 12923 12924 12925 3
12922 12923 12924 12926 3
12927 12923 12924 12925 3
12927 12923 12924 12926 3
12929 12930 12931 12932 3 33.20422 0.00000 -33.20422 0.00000 0.00000 0.00000 ; methylguanidinium ion
12929 12930 12931 12935 3 20.50160 0.00000 -20.50160 0.00000 0.00000 0.00000 ; imides
12930 12931 12932 12933 3
12930 12931 12932 12934 3
12935 12931 12932 12933 3
12935 12931 12932 12934 3
12937 12938 12939 12940 3 33.20422 0.00000 -33.20422 0.00000 0.00000 0.00000 ; methylguanidinium ion
12937 12938 12939 12943 3 20.50160 0.00000 -20.50160 0.00000 0.00000 0.00000 ; imides
12938 12939 12940 12941 3
12938 12939 12940 12942 3
12943 12939 12940 12941 3
12943 12939 12940 12942 3
12945 12946 12947 12948 3 33.20422 0.00000 -33.20422 0.00000 0.00000 0.00000 ; methylguanidinium ion
12945 12946 12947 12951 3 20.50160 0.00000 -20.50160 0.00000 0.00000 0.00000 ; imides
12946 12947 12948 12949 3
12946 12947 12948 12950 3
12951 12947 12948 12949 3
12951 12947 12948 12950 3
12953 12954 12955 12956 3 33.20422 0.00000 -33.20422 0.00000 0.00000 0.00000 ; methylguanidinium ion
12953 12954 12955 12959 3 20.50160 0.00000 -20.50160 0.00000 0.00000 0.00000 ; imides
12954 12955 12956 12957 3
12954 12955 12956 12958 3
12959 12955 12956 12957 3
12959 12955 12956 12958 3
12961 12962 12963 12964 3 33.20422 0.00000 -33.20422 0.00000 0.00000 0.00000 ; methylguanidinium ion
12961 12962 12963 12967 3 20.50160 0.00000 -20.50160 0.00000 0.00000 0.00000 ; imides
12962 12963 12964 12965 3
12962 12963 12964 12966 3
12967 12963 12964 12965 3
12967 12963 12964 12966 3
12969 12970 12971 12972 3 33.20422 0.00000 -33.20422 0.00000 0.00000 0.00000 ; methylguanidinium ion
12969 12970 12971 12975 3 20.50160 0.00000 -20.50160 0.00000 0.00000 0.00000 ; imides
12970 12971 12972 12973 3
12970 12971 12972 12974 3
12975 12971 12972 12973 3
12975 12971 12972 12974 3

[ system ]
None

[ molecules ]
HYB 1
